 vasp.5.3.3 18Dez12 (build Mar 21 2013 10:18:23) complex                        
  
 executed on             LinuxIFC date 2015.03.01  10:47:46
 running on   64 total cores
 distrk:  each k-point on   64 cores,    1 groups
 distr:  one band on NCORES_PER_BAND=   8 cores,    8 groups


--------------------------------------------------------------------------------------------------------


 INCAR:
 POTCAR:   PAW_PBE Al 04Jan2001                   
 POTCAR:   PAW_PBE Al 04Jan2001                   
   VRHFIN =Al: s2p1                                                             
   LEXCH  = PE                                                                  
   EATOM  =    53.5387 eV,    3.9350 Ry                                         
                                                                                
   TITEL  = PAW_PBE Al 04Jan2001                                                
   LULTRA =        F    use ultrasoft PP ?                                      
   IUNSCR =        1    unscreen: 0-lin 1-nonlin 2-no                           
   RPACOR =    1.500    partial core radius                                     
   POMASS =   26.982; ZVAL   =    3.000    mass and valenz                      
   RCORE  =    1.900    outmost cutoff radius                                   
   RWIGS  =    2.650; RWIGS  =    1.402    wigner-seitz radius (au A)           
   ENMAX  =  240.300; ENMIN  =  180.225 eV                                      
   ICORE  =        2    local potential                                         
   LCOR   =        T    correct aug charges                                     
   LPAW   =        T    paw PP                                                  
   EAUG   =  291.052                                                            
   DEXC   =    -.041                                                            
   RMAX   =    2.974    core radius for proj-oper                               
   RAUG   =    1.300    factor for augmentation sphere                          
   RDEP   =    1.966    radius for radial grids                                 
   QCUT   =   -4.203; QGAM   =    8.405    optimization parameters              
                                                                                
   Description                                                                  
     l     E      TYP  RCUT    TYP  RCUT                                        
     0   .000     23  1.900                                                     
     0   .000     23  1.900                                                     
     1   .000     23  1.900                                                     
     1  1.000     23  1.900                                                     
     2   .000      7  1.900                                                     
  local pseudopotential read in
  partial core-charges read in
  atomic valenz-charges read in
  non local Contribution for L=           0  read in
    real space projection operators read in
  non local Contribution for L=           0  read in
    real space projection operators read in
  non local Contribution for L=           1  read in
    real space projection operators read in
  non local Contribution for L=           1  read in
    real space projection operators read in
    PAW grid and wavefunctions read in
 
   number of l-projection  operators is LMAX  =           4
   number of lm-projection operators is LMMAX =           8
 
 Optimization of the real space projectors (new method)

 maximal supplied QI-value         = 19.84
 optimisation between [QCUT,QGAM] = [ 11.51, 23.22] = [ 37.09,150.92] Ry 
 Optimized for a Real-space Cutoff    1.08 Angstroem

   l    n(q)    QCUT    max X(q) W(low)/X(q) W(high)/X(q)  e(spline) 
   0      7    11.508    13.410    0.50E-04    0.15E-04    0.75E-08
   0      7    11.508   140.052    0.39E-03    0.29E-03    0.70E-07
   1      7    11.508     9.624    0.43E-04    0.92E-04    0.16E-07
   1      7    11.508    53.353    0.34E-03    0.13E-03    0.59E-07
 PAW_PBE Al 04Jan2001                   :
 energy of atom  1       EATOM=  -53.5387
 kinetic energy error for atom=    0.0002 (will be added to EATOM!!)
 
 
 POSCAR: Iter 000011                             
  positions in cartesian coordinates
  velocities in cartesian coordinates
  No initial velocities read in
 exchange correlation table for  LEXCH =        8
   RHO(1)=    0.500       N(1)  =     2000
   RHO(2)=  100.500       N(2)  =     4000
 


--------------------------------------------------------------------------------------------------------


 ion  position               nearest neighbor table
   1  0.094  0.007  0.085- 424 2.55 549 2.73 325 2.74 553 2.75 554 2.79 327 2.84 551 2.84 427 2.91
                           426 2.95 332 2.97 428 3.13 310 3.19
   2  0.164  0.257  0.756- 368 2.70 105 2.72   3 2.74   7 2.75 392 2.95  29 2.96   6 3.01   4 3.02
                            12 3.04 103 3.13 370 3.19
   3  0.089  0.341  0.746-  77 2.67 312 2.70   2 2.74  83 2.74 368 2.80  52 2.81   4 2.85 392 3.05
                            20 3.10  12 3.10   5 3.16 387 3.23
   4  0.169  0.337  0.661-   6 2.55  52 2.80   3 2.85   7 2.91 645 2.91  12 2.94 707 2.95  86 3.00
                             2 3.02 652 3.06 639 3.07  83 3.07
   5  0.991  0.346  0.660-  55 2.42 717 2.61  25 2.68  21 2.72 726 2.74  52 2.81  77 2.94 652 2.99
                           724 3.00  20 3.06   3 3.16  12 3.30
   6  0.241  0.260  0.659-   4 2.55 645 2.63 103 2.72 639 2.72   7 2.82  29 2.97 647 3.00   2 3.01
                             8 3.02   9 3.06 663 3.09  31 3.15
   7  0.249  0.332  0.750-   8 2.53 246 2.64 368 2.75   2 2.75   6 2.82   9 2.84   4 2.91  83 2.91
                           373 3.03 370 3.07  86 3.15  89 3.20
   8  0.330  0.266  0.746-   9 2.52   7 2.53  24 2.65  29 2.77 373 2.86 375 2.89 367 2.93  10 2.98
                             6 3.02 370 3.14  31 3.17
   9  0.337  0.341  0.674-  24 2.45   8 2.52  89 2.68   7 2.84 688 2.92  10 2.93  93 2.97 680 3.04
                             6 3.06  86 3.07 645 3.09 647 3.22
  10  0.413  0.248  0.657-  31 2.74 647 2.76 680 2.77  14 2.83  24 2.87  37 2.91   9 2.93 670 2.97
                           653 2.97  34 2.98   8 2.98  13 3.26
  11  0.589  0.244  0.658-  43 2.64  17 2.68 712 2.71  37 2.76 674 2.83  18 2.86  14 2.91 709 3.05
                            15 3.07 653 3.12  39 3.15  13 3.19
  12  0.086  0.249  0.658- 105 2.60 657 2.69 639 2.83 717 2.86  46 2.87   4 2.94 103 2.96 652 3.04
                             2 3.04   3 3.10  20 3.16   5 3.30
  13  0.502  0.259  0.757- 376 2.56 390 2.62  15 2.68  34 2.71  14 2.77  24 2.83 375 2.86  39 2.98
                            37 3.10  11 3.19  10 3.26
  14  0.500  0.325  0.664-  24 2.74  13 2.77 709 2.79  10 2.83  11 2.91  15 2.94  93 3.01  95 3.04
                           680 3.17 653 3.21
  15  0.585  0.332  0.750-  17 2.59  13 2.68  79 2.80  18 2.82 376 2.86 384 2.89  14 2.94 390 3.03
                           257 3.05  95 3.06  11 3.07  94 3.31
  16  0.743  0.251  0.673-  22 2.54  44 2.57  17 2.67  18 2.75  49 2.83  19 2.88  23 2.90  43 3.01
                           712 3.03 721 3.09 640 3.20 715 3.27
  17  0.659  0.254  0.744-  15 2.59  16 2.67  11 2.68  18 2.71 376 2.84  43 2.85 384 2.86  44 2.99
                            19 3.07  39 3.11 408 3.17 382 3.20
  18  0.666  0.334  0.665-  17 2.71  16 2.75 419 2.81  15 2.82 709 2.84  11 2.86 715 2.86  79 2.89
                           101 2.90 712 2.96  19 3.16  94 3.18
  19  0.757  0.333  0.759- 315 2.68  22 2.72 384 2.75  23 2.78  56 2.84  16 2.88 213 2.90 382 2.91
                            79 3.04  17 3.07 101 3.14  18 3.16
  20  0.993  0.256  0.749- 412 2.62 392 2.66 105 2.69  21 2.75  46 2.75  25 2.82 387 2.93  27 3.02
                             5 3.06 388 3.09   3 3.10  12 3.16
  21  0.913  0.265  0.669-  22 2.54  25 2.57   5 2.72  20 2.75 717 2.75 636 2.87 724 2.89  23 2.92
                            49 2.98 721 3.01  46 3.10  27 3.22
  22  0.830  0.252  0.732-  49 2.52  21 2.54  16 2.54  44 2.66  27 2.71  19 2.72  23 2.74  25 3.05
                           382 3.13 388 3.20 315 3.36
  23  0.820  0.342  0.664- 715 2.72  22 2.74  19 2.78 101 2.85 724 2.86  55 2.87  16 2.90  21 2.92
                           141 2.93 721 2.98  56 2.99  25 3.00
  24  0.415  0.334  0.738-   9 2.45   8 2.65  14 2.74  95 2.76  13 2.83 375 2.87  10 2.87 254 2.88
                            89 2.97  93 3.00 373 3.11 390 3.12
  25  0.916  0.343  0.742-  21 2.57  55 2.67   5 2.68  20 2.82  77 2.86  56 2.86 315 2.99  23 3.00
                           387 3.03  22 3.05 388 3.09 233 3.19
  26  0.847  0.013  0.670-  48 2.52 180 2.57  47 2.61  38 2.73 634 2.82 322 2.84 161 2.90  40 2.91
                           326 3.00 177 3.05 324 3.07  41 3.16 318 3.29
  27  0.902  0.173  0.764- 412 2.60  22 2.71  48 2.74 414 2.76 388 2.88  49 3.00  20 3.02  47 3.07
                            51 3.16  46 3.20  21 3.22
  28  0.253  0.090  0.672- 103 2.64  32 2.65  31 2.73  29 2.86 104 2.93  30 2.99 663 3.01 665 3.04
                           678 3.05 364 3.20 348 3.20 659 3.21
  29  0.257  0.179  0.749- 367 2.49 337 2.72   8 2.77 103 2.83  28 2.86  31 2.87   2 2.96   6 2.97
                           104 3.06 370 3.08  30 3.24
  30  0.353  0.086  0.744-  33 2.68 337 2.77 359 2.82 367 2.84  34 2.86  31 2.91 365 2.92  28 2.99
                           397 3.01 364 3.13  32 3.16  29 3.24
  31  0.333  0.168  0.659-  28 2.73  10 2.74 647 2.84  29 2.87 663 2.88  30 2.91 670 2.93 665 2.94
                            33 3.14   6 3.15   8 3.17  34 3.30
  32  0.253  0.002  0.737- 264 2.63  28 2.65 354 2.68 364 2.75 334 2.79 337 2.89 348 2.93 365 2.93
                           353 3.03 357 3.09  30 3.16 104 3.18
  33  0.422  0.075  0.659- 200 2.65  30 2.68 670 2.71  36 2.82 364 2.95 665 2.97 359 3.00 672 3.00
                            37 3.03 358 3.04  31 3.14  34 3.26
  34  0.433  0.172  0.751-  37 2.70  13 2.71  36 2.73 397 2.77  30 2.86  10 2.98 367 3.01 375 3.01
                            33 3.26  31 3.30
  35  0.578  0.076  0.659- 358 2.67 672 2.73 203 2.75  36 2.76 655 2.83  43 2.85  50 2.87  37 2.90
                            45 2.91  39 3.08 674 3.19  42 3.24
  36  0.502  0.083  0.744-  39 2.53 359 2.71  34 2.73  35 2.76  37 2.81  33 2.82 397 2.86 358 2.89
                            50 3.00 400 3.01 401 3.04
  37  0.504  0.169  0.666-  34 2.70  11 2.76  39 2.77 653 2.81  36 2.81  35 2.90 670 2.90  10 2.91
                            33 3.03  13 3.10 672 3.14 674 3.22
  38  0.923  0.002  0.752- 318 2.40 284 2.68  26 2.73 320 2.73 411 2.73  48 2.80 324 2.88  51 2.91
                           322 2.93 414 3.05  47 3.16 413 3.21
  39  0.574  0.159  0.755-  36 2.53 401 2.71 376 2.73  37 2.77  43 2.88 408 2.98  13 2.98  42 3.06
                            35 3.08  17 3.11  11 3.15
  40  0.761  0.097  0.669-  49 2.52  44 2.65 640 2.69  48 2.72 161 2.73 634 2.84  26 2.91  43 2.94
                            41 2.98 655 3.02  42 3.06  45 3.14
  41  0.746  0.007  0.751-  42 2.50 326 2.56  45 2.69 317 2.76 275 2.76 405 2.86  48 2.87 324 2.91
                           277 2.92  40 2.98 413 3.03  26 3.16
  42  0.671  0.078  0.755-  41 2.50  50 2.53 275 2.69  45 2.79 401 2.82 405 2.83  43 2.89 408 2.91
                            40 3.06  39 3.06  44 3.10  35 3.24
  43  0.658  0.161  0.671-  11 2.64 655 2.71  17 2.85  35 2.85  39 2.88  42 2.89 674 2.94  40 2.94
                            44 2.96  16 3.01 712 3.17 640 3.21
  44  0.753  0.175  0.746-  16 2.57 382 2.65  40 2.65  22 2.66  49 2.76 405 2.84  43 2.96  17 2.99
                            48 3.09  42 3.10 408 3.13
  45  0.673  0.003  0.668- 161 2.63  41 2.69  50 2.73 352 2.76 326 2.78  42 2.79 655 2.87 317 2.91
                            35 2.91 203 2.91 167 2.98  40 3.14
  46  0.999  0.171  0.675-  51 2.43 105 2.58  47 2.73 657 2.74  20 2.75  12 2.87 636 2.91 178 3.07
                            21 3.10 717 3.11  27 3.20 631 3.22
  47  0.914  0.097  0.663-  26 2.61 634 2.69  46 2.73  51 2.74 636 2.75  49 2.76  48 2.80 318 2.81
                           631 2.82 180 2.98  27 3.07  38 3.16
  48  0.839  0.080  0.749-  26 2.52  40 2.72  27 2.74 405 2.79  47 2.80  38 2.80  41 2.87 413 2.95
                           414 2.95  44 3.09  49 3.10
  49  0.830  0.174  0.663-  40 2.52  22 2.52  44 2.76  47 2.76 721 2.80 636 2.80 640 2.81  16 2.83
                           634 2.84  21 2.98  27 3.00  48 3.10
  50  0.597  0.004  0.751-  42 2.53 317 2.61  45 2.73 401 2.81 358 2.82  35 2.87 275 2.87 352 2.93
                           341 2.95  36 3.00 272 3.03 400 3.04
  51  0.000  0.092  0.736-  46 2.43 328 2.59 318 2.69  47 2.74 178 2.78 179 2.90  38 2.91 105 2.95
                           412 3.10  27 3.16 411 3.20 414 3.23
  52  0.084  0.415  0.657-  53 2.69 707 2.70 652 2.71 729 2.80   4 2.80   3 2.81   5 2.81  84 2.87
                           726 2.87  77 3.06  81 3.10  83 3.16
  53  0.006  0.493  0.675-  52 2.69  82 2.73  77 2.75 682 2.79  59 2.87  81 2.90 726 2.93  58 2.95
                            80 2.96  55 2.99 145 3.08 729 3.08
  54  0.665  0.584  0.757- 215 2.65 216 2.76 210 2.77  90 2.79  64 2.82  74 2.86 208 2.86  78 2.94
                            98 2.98 236 2.99 301 3.08  97 3.18
  55  0.916  0.412  0.656-   5 2.42 145 2.53 724 2.62  25 2.67 726 2.75 141 2.86  23 2.87  59 2.93
                            53 2.99  57 3.06  56 3.20  77 3.35
  56  0.831  0.423  0.756-  59 2.58  57 2.69 315 2.70 213 2.77  64 2.82  19 2.84  25 2.86  23 2.99
                           101 3.01 233 3.04  55 3.20
  57  0.824  0.497  0.673- 101 2.67  56 2.69 141 2.72 145 2.73  59 2.76  60 2.86 146 2.90  58 2.92
                            64 2.96  78 2.96 135 3.02  55 3.06
  58  0.917  0.575  0.675-  59 2.67 145 2.67 682 2.70 346 2.70 127 2.79  82 2.81 344 2.81  57 2.92
                            53 2.95  60 3.15 146 3.28  76 3.32
  59  0.912  0.491  0.746-  56 2.58 224 2.65  58 2.67 233 2.73  57 2.76  60 2.79  53 2.87  55 2.93
                            77 2.99  82 2.99 237 3.26
  60  0.827  0.566  0.769- 306 2.62 224 2.64 216 2.68  64 2.72  59 2.79  57 2.86  78 3.13 346 3.15
                           344 3.15  58 3.15 210 3.36
  61  0.089  0.753  0.666- 351 2.54 187 2.55  63 2.55  76 2.69 152 2.76  62 2.81 319 2.83 350 2.89
                           122 2.97 149 3.05  65 3.13
  62  0.081  0.680  0.756- 229 2.64  76 2.68 231 2.68  65 2.70 343 2.79  61 2.81  63 2.88 234 2.90
                            80 3.06  85 3.14  82 3.19 238 3.26
  63  0.162  0.677  0.669-  61 2.55 152 2.69 142 2.72  62 2.88  80 2.89  66 2.92  87 2.97  85 2.97
                            67 3.00 149 3.12  65 3.20 705 3.23
  64  0.740  0.496  0.762- 213 2.46  79 2.69 215 2.69  60 2.72 101 2.75 216 2.78  56 2.82  54 2.82
                            90 2.89  57 2.96  78 3.24
  65  0.160  0.757  0.774- 229 2.62 231 2.67 355 2.69  62 2.70 350 2.73 351 2.79  67 2.88 262 2.90
                            61 3.13  63 3.20 232 3.29
  66  0.261  0.746  0.662-  68 2.55 106 2.66  69 2.75 152 2.79 356 2.81 142 2.82 195 2.89  63 2.92
                            67 2.96 351 2.97
  67  0.245  0.676  0.760- 248 2.75 262 2.75  65 2.88  69 2.89 231 2.89  85 2.92  66 2.96  63 3.00
                           290 3.01  87 3.03  68 3.10 102 3.17
  68  0.330  0.668  0.665-  66 2.55  71 2.70 100 2.72  87 2.72 106 2.85  70 2.87 691 2.93 109 2.98
                            69 3.00 142 3.06  67 3.10 102 3.23
  69  0.331  0.758  0.750- 262 2.64 356 2.67  71 2.71  66 2.75 361 2.78  67 2.89  70 2.90 266 2.92
                            68 3.00 355 3.05 290 3.10 294 3.17
  70  0.407  0.757  0.658- 356 2.56 206 2.67 106 2.79  68 2.87  69 2.90  71 2.93 362 2.94 361 2.95
                            72 2.97 109 2.98 114 3.04  75 3.23 108 3.33
  71  0.406  0.675  0.747-  68 2.70  69 2.71  72 2.85  70 2.93 290 2.97  75 3.04 102 3.05 296 3.06
                           255 3.06 100 3.11  99 3.15 294 3.26
  72  0.492  0.669  0.667- 113 2.72 109 2.72  99 2.73  71 2.85 702 2.88  73 2.95  70 2.97  97 3.00
                           100 3.01  75 3.07  74 3.22 114 3.31
  73  0.577  0.757  0.664- 113 2.51 362 2.55 168 2.78 342 2.78 114 2.79 363 2.90  75 2.94  72 2.95
                           207 3.04 340 3.09 208 3.11  74 3.20
  74  0.584  0.670  0.763- 236 2.50 296 2.62 297 2.63  54 2.86 342 2.87 301 2.93 208 3.00  75 3.01
                            99 3.08  73 3.20  72 3.22  97 3.34
  75  0.498  0.760  0.756- 362 2.58 363 2.62 294 2.67 361 2.70 296 2.73  73 2.94 297 3.00  74 3.01
                            71 3.04  72 3.07  70 3.23
  76  0.017  0.668  0.667- 149 2.54  80 2.64  62 2.68  61 2.69 122 2.73 682 2.77 127 3.04  82 3.10
                           346 3.12 345 3.13 343 3.17  58 3.32
  77  0.008  0.415  0.758- 312 2.51   3 2.67  53 2.75 387 2.77 237 2.80  25 2.86  81 2.86 233 2.88
                             5 2.94  59 2.99  52 3.06  55 3.35
  78  0.748  0.593  0.670- 208 2.68 120 2.75 344 2.76  90 2.78 136 2.89 146 2.93  54 2.94  57 2.96
                           210 2.96  60 3.13 135 3.14  64 3.24
  79  0.664  0.416  0.751- 101 2.67  64 2.69  15 2.80 213 2.85 257 2.87 215 2.89  94 2.89  18 2.89
                           384 2.89  19 3.04  90 3.05  98 3.09
  80  0.086  0.585  0.673-  76 2.64  85 2.68  84 2.72 682 2.80  82 2.80  63 2.89  53 2.96  81 2.97
                           705 2.99 149 3.03  62 3.06 729 3.15
  81  0.095  0.495  0.756-  83 2.54 312 2.79  85 2.80  84 2.80 237 2.85  77 2.86  53 2.90  82 2.95
                            80 2.97 238 3.03  52 3.10
  82  0.003  0.575  0.752- 234 2.69  53 2.73 346 2.73 237 2.76  80 2.80  58 2.81 224 2.91  81 2.95
                            59 2.99  76 3.10 238 3.12  62 3.19
  83  0.169  0.421  0.756-  81 2.54 368 2.63  88 2.64 246 2.67   3 2.74 312 2.85   7 2.91  86 2.93
                            84 3.03   4 3.07  52 3.16
  84  0.163  0.503  0.663- 705 2.69  80 2.72  86 2.72 729 2.78  81 2.80 707 2.82  85 2.87  52 2.87
                            87 2.98 686 3.01  83 3.03  88 3.06
  85  0.168  0.584  0.748- 248 2.66  88 2.66  80 2.68  87 2.76  81 2.80  84 2.87  67 2.92  63 2.97
                           231 2.98 238 3.03  62 3.14
  86  0.249  0.431  0.667- 686 2.71  84 2.72  89 2.78  91 2.87  88 2.91  83 2.93 688 2.95   4 3.00
                           707 3.06   9 3.07   7 3.15 645 3.27
  87  0.249  0.591  0.669-  68 2.72  85 2.76 142 2.76 686 2.91 705 2.93  63 2.97  84 2.98  91 2.99
                           102 3.02  67 3.03 691 3.04  88 3.12
  88  0.240  0.503  0.763-  83 2.64  85 2.66 249 2.68 248 2.73 102 2.81 246 2.86  86 2.91  89 3.02
                            84 3.06  87 3.12  91 3.31
  89  0.337  0.429  0.740-  91 2.56  92 2.67   9 2.68 249 2.70  86 2.78  24 2.97  93 3.01  88 3.02
                           254 3.08 246 3.08   7 3.20 373 3.26
  90  0.667  0.511  0.669- 135 2.66  94 2.67 101 2.69  97 2.75  78 2.78  54 2.79 419 2.82 136 2.85
                            64 2.89  98 3.03  79 3.05 701 3.08
  91  0.340  0.508  0.670- 100 2.42  89 2.56 102 2.79 686 2.85  86 2.87 695 2.90  93 2.93  87 2.99
                           691 3.02 688 3.04  92 3.17  88 3.31
  92  0.419  0.495  0.773- 255 2.64 254 2.66  95 2.66  89 2.67 249 2.69  99 2.93 102 2.93  91 3.17

  93  0.425  0.423  0.653-  96 2.66 698 2.75 688 2.78 695 2.83  95 2.85  91 2.93   9 2.97  24 3.00
                            89 3.01  14 3.01 680 3.15
  94  0.586  0.437  0.664- 419 2.60  98 2.65  90 2.67 701 2.74  96 2.76  79 2.89 709 2.93 698 3.05
                            95 3.09  18 3.18  15 3.31
  95  0.492  0.417  0.748-  92 2.66 254 2.74  24 2.76 257 2.81  93 2.85  98 2.86 390 3.02  14 3.04
                            15 3.06  94 3.09  96 3.11
  96  0.496  0.507  0.657-  93 2.66  99 2.69  94 2.76 695 2.79 702 2.82  97 2.84 698 2.88  98 2.89
                           100 2.90 701 2.90  95 3.11
  97  0.583  0.586  0.655- 702 2.56 208 2.62 136 2.70 701 2.73  90 2.75 113 2.81  96 2.84  99 2.93
                            72 3.00  98 3.02  54 3.18  74 3.34
  98  0.572  0.504  0.749-  99 2.64  94 2.65 257 2.66 215 2.80  95 2.86  96 2.89  54 2.98  97 3.02
                            90 3.03 236 3.05  79 3.09
  99  0.496  0.582  0.739-  98 2.64  96 2.69  72 2.73 255 2.88 236 2.92  97 2.93  92 2.93 100 2.99
                            74 3.08  71 3.15 296 3.17
 100  0.403  0.583  0.657-  91 2.42 695 2.65 691 2.66 109 2.67  68 2.72  96 2.90  99 2.99  72 3.01
                            71 3.11 102 3.11 702 3.21
 101  0.739  0.427  0.672- 419 2.66  79 2.67  57 2.67 135 2.68  90 2.69  64 2.75  23 2.85  18 2.90
                           715 2.92 141 3.00  56 3.01  19 3.14
 102  0.330  0.576  0.762- 249 2.67  91 2.79  88 2.81 248 2.88 255 2.89  92 2.93  87 3.02  71 3.05
                           100 3.11 290 3.14  67 3.17  68 3.23 250 3.26
 103  0.178  0.168  0.664-  28 2.64   6 2.72 104 2.77 663 2.80  29 2.83 639 2.85 659 2.92  12 2.96
                           657 3.08 105 3.12   2 3.13 178 3.13
 104  0.162  0.095  0.751- 334 2.55 103 2.77 328 2.92  28 2.93 178 2.94 337 2.97 105 2.99 179 3.05
                            29 3.06  32 3.18 348 3.28
 105  0.078  0.185  0.744-  46 2.58  12 2.60 392 2.62  20 2.69   2 2.72  51 2.95 412 2.98 104 2.99
                           328 3.02 103 3.12 178 3.30
 106  0.328  0.744  0.576- 131 2.60 108 2.62  66 2.66  70 2.79 195 2.82 197 2.85  68 2.85 142 2.99
                           109 2.99 116 3.00 356 3.17
 107  0.409  0.665  0.418- 689 2.63 694 2.64 130 2.71 116 2.75 736 2.75 819 2.84 110 2.88 700 2.89
                           815 2.99 820 3.02 111 3.02 108 3.31
 108  0.421  0.753  0.521- 114 2.43 106 2.62 109 2.65 206 2.80 111 2.82 197 3.02 110 3.02 130 3.08
                           204 3.24 107 3.31  70 3.33
 109  0.420  0.662  0.582- 694 2.44 108 2.65 100 2.67  72 2.72 111 2.75 702 2.75 691 2.80  68 2.98
                            70 2.98 106 2.99 114 3.33 116 3.34
 110  0.493  0.748  0.420- 112 2.61 821 2.65 111 2.76 819 2.79 204 2.79 820 2.87 107 2.88 108 3.02
                           799 3.07 183 3.07 115 3.26
 111  0.501  0.670  0.502- 702 2.66 694 2.71 112 2.71 109 2.75 110 2.76 113 2.82 108 2.82 700 2.88
                           107 3.02 114 3.06 703 3.17 115 3.29
 112  0.571  0.756  0.493- 110 2.61 114 2.66 111 2.71 164 2.84 115 2.89 118 2.90 168 2.97 113 2.98
                           181 3.18 183 3.21 128 3.22
 113  0.574  0.683  0.592-  73 2.51 702 2.71  72 2.72 114 2.79  97 2.81 111 2.82 208 2.83 118 2.85
                           207 2.97 112 2.98 136 3.17
 114  0.503  0.771  0.577- 108 2.43 206 2.62 112 2.66 168 2.78 113 2.79  73 2.79 362 2.79  70 3.04
                           111 3.06  72 3.31 109 3.33
 115  0.605  0.673  0.415- 118 2.57 824 2.58 128 2.62 132 2.62 821 2.82 112 2.89 739 2.93 703 3.10
                           700 3.13 110 3.26 111 3.29
 116  0.319  0.657  0.488- 153 2.50 131 2.55 130 2.62 689 2.67 691 2.72 685 2.74 107 2.75 694 2.76
                           106 3.00 142 3.11 109 3.34
 117  0.743  0.669  0.427- 132 2.71 824 2.71 119 2.79 125 2.83 134 2.87 118 2.89 828 2.95 124 2.97
                           128 3.01 825 3.10 757 3.20 154 3.30
 118  0.656  0.673  0.508- 115 2.57 136 2.69 207 2.75 113 2.85 117 2.89 112 2.90 703 2.96 120 3.00
                           134 3.04 132 3.09 119 3.19
 119  0.759  0.754  0.503- 124 2.72 125 2.78 166 2.78 117 2.79 129 2.82 162 2.83 120 2.89 207 2.89
                           164 2.92 118 3.19
 120  0.752  0.669  0.586- 207 2.63 129 2.72 125 2.73  78 2.75 136 2.79 209 2.79 119 2.89 146 2.97
                           208 2.97 134 2.97 118 3.00 344 3.11
 121  0.989  0.659  0.500- 123 2.62 127 2.73 149 2.75 126 2.78 138 2.84 728 2.89 147 3.03 122 3.05
                           148 3.08 682 3.10 830 3.13 144 3.19
 122  0.992  0.748  0.590- 190 2.50 345 2.59 126 2.68  76 2.73 149 2.82 319 2.83 127 2.92  61 2.97
                           187 3.00 121 3.05 148 3.10 176 3.11
 123  0.917  0.662  0.420- 121 2.62 154 2.66 830 2.76 753 2.77 124 2.79 138 2.84 125 2.94 126 3.00
                           828 3.05 784 3.24
 124  0.839  0.746  0.425- 119 2.72 125 2.78 123 2.79 126 2.79 173 2.84 825 2.95 828 2.97 117 2.97
                           162 3.04 829 3.13 836 3.28
 125  0.831  0.665  0.505- 120 2.73 119 2.78 124 2.78 117 2.83 129 2.92 146 2.93 123 2.94 154 2.96
                           126 2.98 127 2.99 134 3.05 144 3.24
 126  0.919  0.750  0.507- 190 2.43 176 2.45 122 2.68 121 2.78 124 2.79 129 2.97 125 2.98 173 2.99
                           123 3.00 127 3.11 830 3.20
 127  0.920  0.651  0.589- 682 2.60 121 2.73  58 2.79 122 2.92 344 2.97 144 2.98 125 2.99  76 3.04
                           146 3.10 126 3.11 345 3.12 129 3.14
 128  0.665  0.761  0.399- 824 2.51 805 2.61 115 2.62 825 2.66 162 2.85 821 2.89 164 2.98 117 3.01
                           183 3.01 112 3.22
 129  0.833  0.747  0.593- 176 2.49 209 2.68 120 2.72 345 2.76 321 2.77 166 2.78 119 2.82 125 2.92
                           344 2.96 126 2.97 127 3.14
 130  0.334  0.747  0.429- 116 2.62 131 2.66 107 2.71 204 2.83 819 2.93 197 2.93 153 3.01 792 3.02
                           108 3.08 193 3.10 815 3.25 813 3.26
 131  0.252  0.737  0.501- 116 2.55 106 2.60 130 2.66 142 2.69 150 2.72 195 2.73 193 2.85 152 2.89
                           151 2.92 153 2.92 197 3.18
 132  0.669  0.587  0.415- 115 2.62 313 2.65 117 2.71 134 2.73 703 2.75 757 2.86 824 2.93 739 2.98
                           133 3.05 699 3.06 746 3.07 118 3.09
 133  0.661  0.499  0.504- 703 2.55 701 2.56 697 2.58 135 2.68 134 2.72 419 2.80 732 2.84 420 2.88
                           699 2.91 136 2.94 313 3.03 132 3.05
 134  0.739  0.579  0.504- 136 2.60 313 2.63 133 2.72 146 2.73 132 2.73 135 2.83 117 2.87 120 2.97
                           118 3.04 125 3.05 154 3.29
 135  0.736  0.495  0.585- 419 2.47 141 2.65  90 2.66 101 2.68 133 2.68 146 2.75 134 2.83 136 2.86
                           732 2.88  57 3.02  78 3.14
 136  0.667  0.591  0.582- 134 2.60 208 2.63 118 2.69  97 2.70 120 2.79  90 2.85 135 2.86  78 2.89
                           701 2.91 133 2.94 703 2.95 113 3.17
 137  0.002  0.495  0.490- 692 2.56 727 2.72 728 2.74 726 2.76 144 2.77 143 2.80 140 2.80 725 2.84
                           729 2.95 138 3.01 682 3.33
 138  0.008  0.589  0.409- 147 2.65 753 2.71 775 2.72 728 2.74 774 2.81 121 2.84 123 2.84 784 2.88
                           137 3.01 727 3.15 143 3.20
 139  0.843  0.404  0.410- 769 2.62 722 2.64 751 2.68 140 2.68 723 2.69 143 2.83 713 2.87 732 2.90
                           744 3.02 752 3.14
 140  0.916  0.417  0.492- 139 2.68 143 2.69 137 2.80 724 2.81 726 2.84 723 2.87 718 2.90 692 2.95
                           722 2.96 141 3.13 145 3.20
 141  0.825  0.431  0.583- 145 2.57 135 2.65  57 2.72 715 2.77  55 2.86 724 2.87 732 2.88  23 2.93
                           723 2.96 101 3.00 140 3.13 146 3.33
 142  0.234  0.665  0.583- 152 2.62 151 2.66 705 2.67 131 2.69  63 2.72  87 2.76  66 2.82 106 2.99
                           691 3.03 685 3.06  68 3.06 116 3.11
 143  0.913  0.497  0.415- 154 2.59 140 2.69 144 2.73 751 2.75 752 2.77 753 2.79 137 2.80 139 2.83
                           774 2.94 692 2.94 138 3.20
 144  0.908  0.556  0.511- 145 2.53 146 2.65 143 2.73 154 2.75 137 2.77 127 2.98 682 3.10 121 3.19
                           125 3.24
 145  0.907  0.498  0.597- 144 2.53  55 2.53 141 2.57  58 2.67 146 2.71  57 2.73 726 2.88 682 2.96
                            53 3.08 140 3.20
 146  0.823  0.569  0.578- 144 2.65 145 2.71 134 2.73 135 2.75  57 2.90  78 2.93 125 2.93 120 2.97
                           127 3.10  58 3.28 141 3.33 344 3.35
 147  0.079  0.672  0.414- 830 2.61 138 2.65 756 2.71 150 2.72 148 2.73 758 2.88 151 2.93 121 3.03
                           728 3.03 706 3.09 775 3.14 784 3.17
 148  0.084  0.744  0.501- 150 2.61 149 2.70 147 2.73 151 2.77 187 2.79 184 2.82 190 2.91 152 3.02
                           121 3.08 122 3.10 830 3.23
 149  0.072  0.664  0.578-  76 2.54 148 2.70 121 2.75 682 2.80 151 2.81 122 2.82 728 2.84  80 3.03
                            61 3.05  63 3.12 705 3.13 152 3.26
 150  0.165  0.742  0.430- 148 2.61 151 2.70 147 2.72 131 2.72 184 2.85 193 2.86 153 2.98 758 2.98
                           813 3.05 797 3.09 756 3.14
 151  0.160  0.658  0.502- 142 2.66 150 2.70 705 2.73 148 2.77 728 2.78 149 2.81 685 2.88 706 2.91
                           131 2.92 147 2.93 152 3.12 153 3.13
 152  0.172  0.753  0.588- 195 2.44 187 2.56 142 2.62  63 2.69 351 2.75  61 2.76  66 2.79 131 2.89
                           148 3.02 151 3.12 149 3.26
 153  0.251  0.657  0.411- 116 2.50 758 2.72 689 2.72 780 2.77 815 2.79 813 2.82 706 2.83 685 2.90
                           131 2.92 150 2.98 130 3.01 151 3.13
 154  0.845  0.579  0.419- 143 2.59 123 2.66 753 2.70 144 2.75 313 2.81 752 2.89 828 2.93 125 2.96
                           757 3.08 134 3.29 117 3.30
 155  0.073  0.988  0.592- 186 2.66 348 2.68 178 2.75 349 2.76 171 2.77 170 2.80 318 2.96 731 2.96
                           189 3.04 156 3.05 631 3.07 659 3.32
 156  0.164  0.990  0.505- 194 2.61 678 2.70 192 2.75 186 2.78 731 2.82 188 2.84 661 2.84 157 2.85
                           189 2.91 659 2.92 658 3.03 155 3.05
 157  0.080  0.995  0.423- 832 2.48 171 2.74 731 2.80 156 2.85 630 2.85 186 2.90 810 2.92 831 2.97
                           185 3.00 188 3.03 658 3.05 512 3.07
 158  0.502  0.918  0.592- 206 2.59 358 2.60 360 2.74 181 2.79 203 2.82 200 2.88 201 2.93 362 2.95
                           352 2.99 168 3.08 205 3.13
 159  0.757  0.995  0.433- 169 2.52 677 2.67 160 2.74 806 2.74 165 2.78 632 2.78 802 2.80 484 2.83
                           174 2.86 676 2.89 163 2.94 476 3.02
 160  0.677  0.995  0.512- 167 2.69 203 2.70 159 2.74 161 2.76 202 2.89 655 2.90 165 2.91 676 2.96
                           163 2.97 675 2.99 677 3.04
 161  0.753  0.012  0.596-  45 2.63  40 2.73 160 2.76 655 2.78 177 2.82 634 2.82 677 2.82  26 2.90
                           326 2.92 169 3.05 167 3.11 165 3.27
 162  0.752  0.837  0.421- 806 2.54 163 2.61 165 2.77 825 2.79 119 2.83 805 2.83 128 2.85 164 2.92
                           174 3.01 124 3.04 836 3.15
 163  0.672  0.909  0.426- 162 2.61 805 2.67 802 2.69 164 2.71 806 2.75 202 2.78 159 2.94 165 2.95
                           160 2.97 183 3.00 800 3.10 181 3.26
 164  0.664  0.828  0.502- 168 2.53 163 2.71 112 2.84 167 2.87 181 2.87 207 2.92 162 2.92 119 2.92
                           128 2.98 166 3.05 165 3.09
 165  0.761  0.909  0.509- 177 2.46 166 2.76 162 2.77 159 2.78 167 2.80 169 2.82 160 2.91 163 2.95
                           174 2.99 164 3.09 161 3.27
 166  0.754  0.830  0.590- 207 2.71 165 2.76 167 2.76 177 2.77 129 2.78 119 2.78 340 2.84 321 2.96
                           209 3.03 164 3.05 326 3.26
 167  0.675  0.912  0.585- 168 2.63 160 2.69 352 2.73 166 2.76 340 2.79 165 2.80 164 2.87 203 2.87
                            45 2.98 161 3.11 326 3.13
 168  0.598  0.835  0.583- 164 2.53 181 2.57 167 2.63  73 2.78 114 2.78 352 2.85 340 2.88 207 2.88
                           112 2.97 158 3.08 362 3.23
 169  0.835  0.999  0.501- 677 2.52 159 2.52 172 2.64 180 2.70 632 2.73 174 2.80 165 2.82 177 2.85
                           634 2.95 175 2.96 161 3.05 633 3.12
 170  0.993  0.905  0.589- 175 2.66 190 2.73 155 2.80 186 2.81 319 2.81 349 2.91 322 2.92 171 3.06
                           180 3.11 176 3.12 187 3.14 318 3.14
 171  0.001  0.998  0.504- 172 2.55 631 2.71 157 2.74 731 2.75 186 2.77 155 2.77 175 2.82 180 2.97
                           630 3.01 170 3.06 185 3.24
 172  0.921  0.007  0.435- 171 2.55 632 2.61 169 2.64 630 2.83 174 2.85 175 2.86 481 2.96 633 2.97
                           484 3.12 832 3.13 733 3.22 185 3.24
 173  0.920  0.830  0.413- 185 2.61 733 2.75 174 2.80 811 2.81 124 2.84 830 2.87 829 2.90 836 2.97
                           126 2.99 175 3.00 190 3.05
 174  0.846  0.918  0.419- 733 2.56 484 2.65 806 2.67 175 2.78 173 2.80 169 2.80 172 2.85 159 2.86
                           165 2.99 162 3.01 836 3.08
 175  0.922  0.912  0.505- 170 2.66 176 2.69 174 2.78 171 2.82 190 2.84 172 2.86 180 2.92 169 2.96
                           173 3.00 185 3.00 177 3.11
 176  0.893  0.826  0.569- 126 2.45 129 2.49 175 2.69 190 2.72 177 2.88 321 2.95 345 3.05 122 3.11
                           170 3.12 322 3.28
 177  0.824  0.920  0.588- 165 2.46 166 2.77 326 2.77 161 2.82 169 2.85 322 2.86 180 2.88 176 2.88
                            26 3.05 175 3.11 321 3.21
 178  0.084  0.079  0.659- 657 2.62 348 2.73 155 2.75 179 2.76  51 2.78 659 2.84 104 2.94 631 3.05
                            46 3.07 318 3.09 103 3.13 105 3.30
 179  0.078  0.001  0.743- 411 2.65 353 2.66 349 2.75 178 2.76 320 2.82 288 2.83 348 2.86 328 2.88
                           318 2.89  51 2.90 334 2.99 104 3.05
 180  0.909  0.002  0.585-  26 2.57 169 2.70 634 2.73 318 2.75 631 2.76 177 2.88 175 2.92 171 2.97
                            47 2.98 322 3.04 170 3.11 633 3.11
 181  0.561  0.887  0.498- 168 2.57 182 2.65 183 2.76 158 2.79 164 2.87 202 2.91 201 3.09 112 3.18
                           163 3.26 203 3.35
 182  0.504  0.916  0.410- 183 2.45 181 2.65 202 2.69 793 2.73 800 2.82 799 2.84 809 2.97 205 3.00
                           204 3.02 199 3.06 201 3.11
 183  0.572  0.844  0.394- 182 2.45 800 2.58 799 2.65 821 2.69 181 2.76 805 2.86 163 3.00 128 3.01
                           110 3.07 796 3.10 112 3.21
 184  0.078  0.820  0.413- 797 2.67 188 2.67 810 2.72 185 2.75 830 2.76 148 2.82 150 2.85 811 2.89
                           756 2.89 190 3.25 186 3.30
 185  1.000  0.902  0.410- 173 2.61 810 2.63 811 2.68 733 2.73 184 2.75 832 2.80 157 3.00 175 3.00
                           186 3.12 172 3.24 171 3.24 190 3.26
 186  0.078  0.914  0.511- 188 2.61 155 2.66 189 2.77 171 2.77 156 2.78 170 2.81 157 2.90 187 2.90
                           185 3.12 190 3.12 184 3.30
 187  0.092  0.821  0.586-  61 2.55 152 2.56 189 2.61 148 2.79 351 2.87 186 2.90 190 2.96 122 3.00
                           349 3.08 319 3.12 170 3.14
 188  0.155  0.895  0.437- 193 2.55 186 2.61 184 2.67 156 2.84 194 2.86 810 2.89 797 2.95 157 3.03
                           192 3.15
 189  0.164  0.901  0.586- 194 2.52 187 2.61 195 2.73 186 2.77 348 2.89 156 2.91 678 2.91 351 2.95
                           354 3.00 349 3.04 155 3.04
 190  0.992  0.819  0.516- 126 2.43 122 2.50 176 2.72 170 2.73 175 2.84 148 2.91 187 2.96 173 3.05
                           186 3.12 184 3.25 185 3.26
 191  0.312  0.984  0.507- 194 2.45 661 2.55 198 2.68 196 2.71 678 2.71 192 2.78 665 2.90 205 3.01
                           199 3.03 200 3.07 664 3.08 668 3.17
 192  0.238  0.993  0.420- 658 2.58 790 2.69 156 2.75 191 2.78 661 2.79 196 2.81 831 2.86 664 2.96
                           194 3.02 516 3.03 789 3.05 188 3.15
 193  0.240  0.833  0.435- 188 2.55 196 2.69 194 2.78 131 2.85 150 2.86 197 2.86 130 3.10 789 3.13
                           797 3.16 195 3.34
 194  0.240  0.914  0.516- 191 2.45 189 2.52 195 2.60 156 2.61 678 2.66 193 2.78 198 2.86 188 2.86
                           197 2.90 196 2.96 192 3.02
 195  0.243  0.823  0.572- 152 2.44 194 2.60 197 2.71 189 2.73 131 2.73 106 2.82  66 2.89 198 3.11
                           351 3.18 354 3.26 356 3.27 193 3.34
 196  0.319  0.910  0.424- 197 2.67 193 2.69 191 2.71 790 2.81 192 2.81 199 2.84 792 2.85 205 2.93
                           194 2.96 789 2.96 204 2.99 809 3.22
 197  0.333  0.839  0.507- 196 2.67 198 2.68 195 2.71 205 2.74 106 2.85 193 2.86 194 2.90 130 2.93
                           108 3.02 204 3.02 206 3.03 131 3.18
 198  0.332  0.914  0.589- 364 2.50 191 2.68 197 2.68 200 2.75 356 2.76 206 2.80 194 2.86 354 2.86
                           360 2.92 205 3.02 678 3.05 195 3.11
 199  0.403  0.992  0.421- 205 2.61 519 2.74 668 2.76 671 2.83 664 2.84 196 2.84 793 2.90 790 2.91
                           809 2.92 191 3.03 182 3.06 201 3.25
 200  0.412  0.995  0.585- 364 2.60  33 2.65 668 2.70 198 2.75 360 2.81 665 2.82 205 2.87 158 2.88
                           201 3.00 191 3.07 672 3.16 358 3.25
 201  0.507  0.002  0.506- 672 2.48 202 2.64 671 2.66 203 2.73 668 2.86 675 2.87 158 2.93 200 3.00
                           205 3.05 181 3.09 182 3.11 199 3.25
 202  0.587  0.985  0.435- 201 2.64 182 2.69 802 2.76 163 2.78 800 2.87 160 2.89 181 2.91 497 2.97
                           675 2.98 671 3.01 676 3.02
 203  0.590  0.994  0.581- 160 2.70 201 2.73  35 2.75 158 2.82 675 2.83 352 2.85 167 2.87  45 2.91
                           358 2.91 672 2.91 655 3.00 181 3.35
 204  0.414  0.831  0.413- 792 2.56 819 2.69 799 2.69 110 2.79 130 2.83 809 2.88 205 2.89 196 2.99
                           182 3.02 197 3.02 108 3.24
 205  0.415  0.916  0.497- 199 2.61 197 2.74 200 2.87 204 2.89 206 2.91 196 2.93 182 3.00 191 3.01
                           198 3.02 201 3.05 158 3.13
 206  0.424  0.844  0.592- 158 2.59 360 2.61 114 2.62  70 2.67 198 2.80 362 2.80 108 2.80 356 2.86
                           205 2.91 197 3.03
 207  0.678  0.748  0.591- 120 2.63 166 2.71 118 2.75 208 2.85 168 2.88 209 2.88 119 2.89 164 2.92
                           113 2.97 340 3.02  73 3.04
 208  0.661  0.660  0.666-  97 2.62 136 2.63  78 2.68 113 2.83 207 2.85 342 2.86  54 2.86 120 2.97
                           210 3.00  74 3.00 209 3.10  73 3.11
 209  0.760  0.739  0.676- 347 2.65 129 2.68 210 2.70 344 2.71 342 2.77 120 2.79 321 2.80 207 2.88
                           316 2.93 166 3.03 208 3.10 340 3.20
 210  0.738  0.672  0.762- 301 2.42 209 2.70 342 2.72  54 2.77 216 2.90 306 2.92 302 2.94  78 2.96
                           208 3.00 347 3.09 344 3.18  60 3.36
 211  0.741  0.423  0.001- 592 2.51 611 2.57 605 2.67 219 2.67 381 2.73 590 2.87 221 2.87 385 2.92
                           217 2.92 214 3.04 223 3.14 597 3.17
 212  0.739  0.578  0.005- 592 2.60 464 2.63 221 2.63 303 2.68 300 2.74 217 2.86 423 2.91 593 2.98
                           219 3.01 226 3.08 523 3.12 218 3.25
 213  0.747  0.425  0.834-  64 2.46 385 2.63 217 2.72  56 2.77  79 2.85 315 2.90  19 2.90 384 2.96
                           215 2.97 214 2.98 223 3.12
 214  0.652  0.420  0.912- 251 2.66 221 2.69 257 2.77 381 2.83 215 2.84 380 2.86 247 2.90 385 2.90
                           384 2.94 213 2.98 217 3.02 211 3.04
 215  0.654  0.504  0.831- 257 2.64  54 2.65  64 2.69 218 2.79  98 2.80 247 2.82 214 2.84 216 2.87
                            79 2.89 217 2.95 213 2.97 236 3.05
 216  0.744  0.581  0.839- 217 2.55  60 2.68 226 2.74  54 2.76  64 2.78 218 2.83 303 2.84 215 2.87
                           210 2.90 301 2.90 306 2.99
 217  0.744  0.505  0.913- 216 2.55 226 2.60 221 2.61 213 2.72 219 2.84 212 2.86 211 2.92 215 2.95
                           214 3.02 218 3.10 223 3.18
 218  0.649  0.591  0.906- 298 2.59 236 2.62 221 2.72 301 2.77 215 2.79 247 2.81 216 2.83 300 2.85
                           303 3.00 217 3.10 589 3.21 212 3.25
 219  0.827  0.491  0.993- 223 2.51 211 2.67 226 2.73 592 2.77 225 2.80 597 2.83 217 2.84 523 2.87
                           470 2.92 222 2.93 212 3.01 524 3.19 611 3.20
 220  0.007  0.419  0.930- 617 2.70 378 2.70 222 2.72 225 2.89 239 2.90 614 2.92 312 2.95 237 2.98
                           387 2.99 233 2.99 417 3.08 622 3.14
 221  0.660  0.507  0.980- 217 2.61 212 2.63 214 2.69 218 2.72 247 2.76 211 2.87 590 2.92 589 2.94
                           251 2.97 592 3.10 593 3.20
 222  0.925  0.421  0.006- 524 2.58 220 2.72 225 2.74 596 2.75 417 2.80 611 2.84 223 2.88 617 2.89
                           219 2.93 614 2.94 597 3.01 612 3.09
 223  0.842  0.419  0.920- 611 2.43 417 2.49 219 2.51 225 2.74 315 2.75 233 2.78 222 2.88 385 2.94
                           213 3.12 211 3.14 217 3.18
 224  0.915  0.558  0.833-  60 2.64  59 2.65 225 2.66 237 2.72 308 2.84  82 2.91 226 2.91 234 2.97
                           346 3.02 306 3.04 233 3.12 240 3.20
 225  0.920  0.501  0.926- 470 2.64 224 2.66 233 2.69 222 2.74 223 2.74 240 2.75 219 2.80 226 2.83
                           220 2.89 237 3.06 617 3.24
 226  0.828  0.571  0.914- 217 2.60 219 2.73 216 2.74 303 2.80 308 2.82 225 2.83 224 2.91 423 3.01
                           306 3.02 212 3.08 470 3.11
 227  0.169  0.670  0.010- 621 2.41 449 2.60 453 2.65 447 2.67 242 2.87 228 2.87 244 2.88 261 2.95
                           314 2.99 230 3.02 289 3.11 232 3.15
 228  0.086  0.754  0.002- 425 2.51 447 2.66 449 2.70 287 2.71 451 2.82 230 2.83 311 2.85 227 2.87
                           281 2.92 232 2.92 305 3.13 446 3.18
 229  0.076  0.748  0.841-  65 2.62  62 2.64 232 2.67 282 2.69 231 2.72 350 2.79 343 2.79 305 2.81
                           287 2.83 230 2.85 234 3.06
 230  0.078  0.666  0.925- 446 2.61 314 2.63 240 2.80 238 2.82 228 2.83 231 2.83 229 2.85 305 2.88
                           242 2.89 232 2.94 234 2.95 227 3.02
 231  0.154  0.668  0.837- 238 2.62  65 2.67 232 2.67  62 2.68 229 2.72 248 2.74 242 2.80 230 2.83
                            67 2.89  85 2.98 289 3.08
 232  0.162  0.751  0.909- 229 2.67 231 2.67 287 2.69 261 2.71 311 2.87 289 2.90 228 2.92 230 2.94
                           262 3.04 265 3.05 227 3.15  65 3.29
 233  0.923  0.430  0.840- 225 2.69 237 2.69  59 2.73 223 2.78 387 2.85  77 2.88 315 2.97 220 2.99
                           417 3.04  56 3.04 224 3.12  25 3.19
 234  0.998  0.649  0.835- 308 2.68  82 2.69 346 2.71 238 2.78 240 2.84 343 2.88  62 2.90 230 2.95
                           224 2.97 229 3.06 305 3.08 307 3.15
 235  0.495  0.576  0.916- 247 2.47 256 2.60 255 2.63 236 2.71 599 2.73 253 2.75 295 2.75 298 2.85
                           589 2.94 459 3.08 296 3.17
 236  0.569  0.597  0.834-  74 2.50 296 2.53 218 2.62 235 2.71 298 2.79 247 2.89  99 2.92  54 2.99
                            98 3.05 215 3.05 301 3.30
 237  0.010  0.499  0.838- 233 2.69 224 2.72 312 2.73  82 2.76 238 2.79  77 2.80 239 2.83  81 2.85
                           240 2.92 220 2.98 225 3.06  59 3.26
 238  0.090  0.582  0.846- 231 2.62 239 2.64 242 2.66 234 2.78 237 2.79 230 2.82 240 2.90  85 3.03
                            81 3.03  82 3.12  62 3.26
 239  0.092  0.502  0.921- 314 2.52 241 2.63 238 2.64 237 2.83 242 2.84 240 2.85 617 2.85 220 2.90
                           312 3.08 622 3.14 625 3.31
 240  0.003  0.578  0.929- 314 2.52 446 2.58 308 2.71 225 2.75 230 2.80 234 2.84 239 2.85 470 2.88
                           238 2.90 237 2.92 617 2.97 224 3.20 623 3.28
 241  0.164  0.420  0.922- 239 2.63 622 2.76 371 2.77 259 2.80 602 2.92 368 2.97 625 2.98 312 2.99
                           246 3.09 378 3.14 534 3.18
 242  0.169  0.590  0.922- 314 2.60 259 2.62 238 2.66 248 2.68 244 2.72 231 2.80 239 2.84 227 2.87
                           230 2.89 289 2.93 625 3.16
 243  0.327  0.426  0.912- 249 2.51 602 2.62 371 2.66 245 2.68 373 2.78 246 2.79 252 2.84 256 2.86
                           259 2.95 379 2.97 254 2.98 542 2.99
 244  0.252  0.586  0.998- 245 2.54 625 2.55 621 2.64 242 2.72 453 2.80 260 2.85 578 2.87 227 2.88
                           259 2.91 289 2.96 250 3.11 600 3.32
 245  0.321  0.508  0.987- 244 2.54 602 2.61 243 2.68 599 2.76 250 2.77 577 2.78 259 2.78 578 2.85
                           256 2.87 252 2.97 625 3.14 600 3.32
 246  0.250  0.406  0.829- 368 2.54   7 2.64  83 2.67 373 2.69 371 2.73 249 2.74 243 2.79  88 2.86
                            89 3.08 241 3.09 259 3.12
 247  0.570  0.506  0.911- 235 2.47 258 2.72 257 2.74 221 2.76 253 2.78 218 2.81 215 2.82 236 2.89
                           214 2.90 251 2.99 589 3.04
 248  0.236  0.590  0.834-  85 2.66 259 2.66 242 2.68  88 2.73 231 2.74  67 2.75 250 2.77 102 2.88
                           289 2.89 290 3.16 249 3.23
 249  0.325  0.491  0.832- 243 2.51 250 2.62 102 2.67  88 2.68  92 2.69  89 2.70 246 2.74 259 2.82
                           256 2.98 254 3.10 248 3.23 255 3.33
 250  0.331  0.577  0.897- 249 2.62 290 2.64 256 2.74 255 2.75 245 2.77 248 2.77 259 2.82 599 2.95
                           289 3.05 295 3.10 244 3.11 260 3.21 102 3.26
 251  0.580  0.416  0.994- 214 2.66 583 2.74 374 2.75 258 2.76 590 2.80 381 2.83 253 2.87 574 2.93
                           221 2.97 247 2.99 585 3.27 380 3.27
 252  0.413  0.427  0.992- 577 2.60 256 2.64 253 2.73 258 2.81 542 2.82 243 2.84 583 2.88 379 2.91
                           245 2.97 581 3.04 374 3.16 548 3.33
 253  0.498  0.501  0.001- 581 2.56 585 2.58 589 2.61 252 2.73 235 2.75 247 2.78 599 2.85 251 2.87
                           258 2.89 256 2.89 583 2.95
 254  0.419  0.404  0.834- 379 2.53 373 2.58 390 2.59  92 2.66  95 2.74 258 2.77  24 2.88 243 2.98
                            89 3.08 249 3.10 256 3.13
 255  0.425  0.586  0.834- 235 2.63  92 2.64 295 2.67 250 2.75 256 2.79 296 2.83  99 2.88 102 2.89
                            71 3.06 290 3.08 249 3.33
 256  0.415  0.505  0.915- 599 2.54 235 2.60 252 2.64 250 2.74 255 2.79 243 2.86 245 2.87 253 2.89
                           258 2.90 249 2.98 254 3.13
 257  0.575  0.429  0.829- 215 2.64  98 2.66 247 2.74 214 2.77 258 2.79  95 2.81  79 2.87 380 2.89
                            15 3.05 390 3.07 384 3.34
 258  0.499  0.419  0.914- 247 2.72 251 2.76 254 2.77 374 2.77 257 2.79 252 2.81 390 2.84 253 2.89
                           256 2.90 379 2.92 380 3.02
 259  0.238  0.508  0.907- 242 2.62 248 2.66 625 2.76 245 2.78 241 2.80 250 2.82 249 2.82 244 2.91
                           243 2.95 602 3.09 246 3.12
 260  0.336  0.669  0.992- 453 2.67 289 2.73 458 2.79 599 2.83 244 2.85 291 2.88 295 2.90 293 2.92
                           455 3.07 578 3.12 261 3.17 250 3.21
 261  0.245  0.762  0.985- 311 2.57 265 2.60 291 2.61 289 2.69 432 2.71 232 2.71 263 2.81 449 2.91
                           227 2.95 453 2.99 260 3.17 455 3.21
 262  0.263  0.760  0.835- 355 2.55  69 2.64 266 2.68 265 2.71 291 2.72 290 2.73  67 2.75 289 2.82
                            65 2.90 232 3.04
 263  0.329  0.840  0.997- 291 2.58 433 2.66 432 2.73 437 2.77 265 2.78 267 2.80 261 2.81 455 2.84
                           271 2.90 269 2.98 273 3.04 293 3.06
 264  0.254  0.934  0.821- 365 2.51  32 2.63 357 2.64 355 2.67 394 2.75 286 2.78 334 2.79 353 2.81
                           267 2.85 266 3.10 265 3.17
 265  0.252  0.840  0.912- 261 2.60 267 2.63 291 2.70 262 2.71 266 2.77 263 2.78 311 2.80 273 2.92
                           286 2.94 232 3.05 264 3.17
 266  0.339  0.840  0.838- 357 2.60 267 2.61 262 2.68 294 2.69 291 2.75 265 2.77 361 2.81 271 2.85
                            69 2.92 355 3.00 270 3.04 264 3.10
 267  0.328  0.918  0.911- 395 2.60 266 2.61 265 2.63 263 2.80 273 2.83 365 2.85 264 2.85 271 2.92
                           269 3.07 394 3.07 398 3.34 270 3.36
 268  0.580  0.924  0.998- 285 2.47 442 2.70 404 2.70 279 2.73 561 2.78 439 2.89 565 2.91 436 2.91
                           440 2.92 274 2.94 499 2.99 496 3.12
 269  0.418  0.925  0.999- 285 2.68 271 2.73 437 2.74 436 2.74 435 2.83 395 2.85 433 2.87 442 2.95
                           440 2.97 263 2.98 398 3.02 267 3.07
 270  0.443  0.910  0.834- 271 2.70 341 2.73 285 2.77 361 2.78 400 2.81 359 2.88 398 3.03 266 3.04
                           357 3.06 267 3.36
 271  0.421  0.844  0.921- 294 2.66 270 2.70 269 2.73 285 2.74 293 2.76 442 2.83 266 2.85 291 2.89
                           263 2.90 267 2.92 299 2.96
 272  0.585  0.930  0.851- 400 2.63 404 2.67 279 2.68 285 2.76 274 2.78 275 2.87 341 2.93 276 2.98
                           317 3.03  50 3.03 363 3.32
 273  0.243  0.931  0.990- 325 2.69 427 2.74 430 2.81 267 2.83 395 2.84 394 2.86 286 2.87 265 2.92
                           311 2.93 433 3.01 263 3.04 432 3.36
 274  0.592  0.836  0.916- 279 2.68 292 2.73 496 2.77 272 2.78 276 2.80 304 2.83 297 2.85 299 2.89
                           268 2.94 442 2.95 285 2.98
 275  0.675  0.007  0.840-  42 2.69 407 2.73 406 2.75  41 2.76 401 2.81 317 2.84  50 2.87 272 2.87
                           405 2.93 277 3.00 279 3.02 404 3.03
 276  0.668  0.841  0.829- 317 2.65 363 2.68 277 2.80 274 2.80 316 2.85 279 2.97 272 2.98 304 3.01
                           342 3.08 297 3.14 278 3.15
 277  0.756  0.915  0.828- 324 2.52 837 2.63 316 2.70 317 2.75 276 2.80 413 2.85 406 2.92  41 2.92
                           275 3.00 278 3.04 279 3.22
 278  0.763  0.826  0.917- 302 2.60 510 2.70 837 2.75 304 2.92 309 2.93 468 2.93 277 3.04 502 3.06
                           496 3.11 276 3.15 279 3.22 418 3.35
 279  0.666  0.917  0.926- 274 2.68 272 2.68 268 2.73 502 2.80 496 2.81 406 2.82 561 2.83 276 2.97
                           404 3.01 275 3.02 278 3.22 277 3.22
 280  0.921  0.911  0.983- 281 2.65 283 2.75 506 2.76 510 2.84 418 2.84 837 2.86 393 2.90 428 2.91
                           525 2.92 503 2.98 332 3.10 507 3.12
 281  0.004  0.840  0.983- 287 2.48 280 2.65 283 2.66 428 2.72 305 2.82 506 2.84 425 2.90 310 2.91
                           228 2.92 418 3.20 457 3.28 451 3.28
 282  0.002  0.831  0.839- 350 2.61 283 2.67 229 2.69 343 2.71 323 2.81 305 2.84 287 2.86 418 2.92
                           288 2.92 320 3.01 307 3.26 284 3.26
 283  0.004  0.918  0.906- 281 2.66 282 2.67 411 2.69 284 2.70 288 2.70 280 2.75 287 2.94 310 2.97
                           393 3.03 332 3.06 333 3.28 418 3.31
 284  0.916  0.934  0.839- 837 2.63  38 2.68 393 2.68 411 2.68 283 2.70 413 2.75 324 2.81 323 2.89
                           320 2.95 418 2.99 282 3.26
 285  0.504  0.920  0.930- 268 2.47 442 2.60 269 2.68 271 2.74 272 2.76 270 2.77 436 2.82 398 2.84
                           404 2.93 274 2.98 400 3.01
 286  0.169  0.927  0.898- 333 2.68 394 2.69 288 2.73 264 2.78 310 2.83 273 2.87 334 2.88 265 2.94
                           325 2.96 287 3.13 311 3.20
 287  0.086  0.831  0.922- 281 2.48 311 2.65 310 2.67 232 2.69 228 2.71 229 2.83 282 2.86 283 2.94
                           286 3.13 305 3.15 288 3.17
 288  0.082  0.920  0.826- 353 2.43 411 2.57 283 2.70 286 2.73 320 2.76 350 2.82 179 2.83 282 2.92
                           333 3.00 287 3.17 334 3.23
 289  0.255  0.676  0.915- 290 2.54 261 2.69 260 2.73 262 2.82 291 2.86 248 2.89 232 2.90 242 2.93
                           244 2.96 250 3.05 231 3.08 227 3.11
 290  0.335  0.674  0.847- 289 2.54 250 2.64 295 2.68 262 2.73 291 2.85  71 2.97  67 3.01 255 3.08
                            69 3.10 102 3.14 248 3.16 294 3.24
 291  0.333  0.764  0.922- 263 2.58 261 2.61 265 2.70 262 2.72 293 2.74 266 2.75 290 2.85 289 2.86
                           260 2.88 271 2.89 294 3.04 295 3.30
 292  0.590  0.752  0.991- 299 2.64 496 2.65 298 2.67 304 2.72 274 2.73 460 2.76 465 2.79 439 2.82
                           300 2.83 442 2.98 459 3.03 461 3.15
 293  0.421  0.754  0.992- 299 2.63 459 2.72 291 2.74 271 2.76 437 2.82 461 2.84 260 2.92 295 2.94
                           442 2.96 455 3.00 458 3.03 263 3.06
 294  0.426  0.772  0.839- 361 2.62 271 2.66  75 2.67 266 2.69 299 2.83 296 2.95 291 3.04 295 3.15
                            69 3.17 290 3.24  71 3.26
 295  0.424  0.664  0.911- 255 2.67 290 2.68 296 2.70 235 2.75 459 2.77 599 2.83 260 2.90 293 2.94
                           299 2.95 250 3.10 294 3.15 291 3.30
 296  0.500  0.675  0.831- 236 2.53  74 2.62 297 2.64 295 2.70  75 2.73 255 2.83 299 2.95 294 2.95
                           298 2.97  71 3.06  99 3.17 235 3.17
 297  0.584  0.743  0.844-  74 2.63 296 2.64 304 2.68 301 2.73 299 2.73 298 2.84 274 2.85 363 2.85
                            75 3.00 276 3.14 342 3.24
 298  0.573  0.663  0.928- 459 2.58 218 2.59 292 2.67 299 2.77 300 2.78 236 2.79 589 2.84 297 2.84
                           235 2.85 296 2.97 304 3.16 301 3.31
 299  0.505  0.754  0.923- 293 2.63 292 2.64 297 2.73 298 2.77 459 2.78 294 2.83 442 2.84 274 2.89
                           296 2.95 295 2.95 271 2.96
 300  0.663  0.661  1.000- 593 2.68 212 2.74 303 2.76 298 2.78 468 2.82 292 2.83 218 2.85 465 2.85
                           464 2.91 460 2.91 589 3.00 304 3.01
 301  0.676  0.680  0.841- 210 2.42 304 2.43 297 2.73 218 2.77 303 2.85 216 2.90  74 2.93  54 3.08
                           342 3.09 302 3.13 236 3.30 298 3.31
 302  0.781  0.755  0.839- 278 2.60 309 2.60 347 2.65 306 2.75 316 2.84 210 2.94 307 3.00 301 3.13
                           304 3.24 303 3.30
 303  0.751  0.657  0.928- 212 2.68 468 2.69 300 2.76 309 2.78 226 2.80 423 2.82 216 2.84 301 2.85
                           218 3.00 304 3.01 306 3.28 302 3.30
 304  0.670  0.749  0.913- 301 2.43 297 2.68 292 2.72 274 2.83 468 2.87 496 2.91 278 2.92 300 3.01
                           303 3.01 276 3.01 298 3.16 302 3.24
 305  0.989  0.745  0.917- 446 2.55 457 2.72 307 2.81 229 2.81 281 2.82 282 2.84 230 2.88 308 2.97
                           418 3.00 234 3.08 228 3.13 287 3.15
 306  0.839  0.658  0.826- 307 2.54  60 2.62 346 2.68 302 2.75 308 2.80 347 2.81 210 2.92 216 2.99
                           226 3.02 224 3.04 309 3.05 303 3.28
 307  0.904  0.739  0.838- 306 2.54 343 2.65 347 2.65 418 2.68 309 2.70 305 2.81 308 2.86 346 2.96
                           302 3.00 323 3.01 234 3.15 282 3.26
 308  0.917  0.646  0.910- 446 2.61 234 2.68 240 2.71 306 2.80 226 2.82 224 2.84 309 2.85 307 2.86
                           305 2.97 470 2.99 423 3.12 457 3.18
 309  0.838  0.732  0.927- 457 2.52 302 2.60 307 2.70 303 2.78 423 2.80 468 2.82 308 2.85 418 2.88
                           278 2.93 306 3.05 510 3.17
 310  0.095  0.919  0.987- 325 2.58 287 2.67 311 2.71 427 2.72 286 2.83 428 2.89 281 2.91 425 2.94
                           332 2.96 283 2.97 333 3.03   1 3.19
 311  0.169  0.835  0.993- 261 2.57 287 2.65 427 2.70 310 2.71 425 2.79 265 2.80 228 2.85 449 2.86
                           232 2.87 432 2.89 273 2.93 286 3.20
 312  0.080  0.411  0.833-  77 2.51   3 2.70 237 2.73 368 2.74 387 2.77  81 2.79  83 2.85 220 2.95
                           241 2.99 239 3.08 378 3.22
 313  0.750  0.513  0.418- 732 2.59 757 2.62 134 2.63 132 2.65 420 2.69 154 2.81 133 3.03 744 3.04
                           752 3.12 746 3.26
 314  0.087  0.580  0.990- 240 2.52 239 2.52 242 2.60 230 2.63 623 2.64 617 2.74 621 2.84 447 2.92
                           227 2.99 446 3.16 618 3.23 625 3.29
 315  0.836  0.345  0.835- 388 2.59  19 2.68  56 2.70 223 2.75 385 2.81 417 2.81 389 2.87 213 2.90
                           233 2.97  25 2.99 382 3.25  22 3.36
 316  0.758  0.832  0.754- 277 2.70 321 2.72 340 2.81 302 2.84 276 2.85 324 2.90 326 2.92 209 2.93
                           347 2.95 342 2.97 317 3.10
 317  0.668  0.924  0.758-  50 2.61 276 2.65 277 2.75 352 2.75  41 2.76 275 2.84 326 2.86 340 2.88
                            45 2.91 272 3.03 316 3.10 363 3.14
 318  0.982  0.003  0.672-  38 2.40  51 2.69 180 2.75  47 2.81 320 2.84 322 2.88 179 2.89 155 2.96
                           631 3.02 178 3.09 170 3.14 349 3.20  26 3.29
 319  0.999  0.827  0.675- 345 2.67 350 2.68 349 2.74 170 2.81 122 2.83  61 2.83 320 2.84 343 3.01
                           322 3.05 323 3.06 187 3.12
 320  0.998  0.917  0.750- 349 2.63 411 2.65  38 2.73 288 2.76 323 2.82 179 2.82 318 2.84 319 2.84
                           350 2.85 322 2.92 284 2.95 282 3.01
 321  0.839  0.824  0.678- 347 2.59 345 2.61 322 2.70 316 2.72 129 2.77 209 2.80 323 2.82 176 2.95
                           166 2.96 324 3.14 326 3.19 177 3.21
 322  0.906  0.912  0.672- 321 2.70 324 2.77  26 2.84 177 2.86 318 2.88 323 2.89 170 2.92 320 2.92
                            38 2.93 180 3.04 319 3.05 176 3.28
 323  0.913  0.840  0.766- 282 2.81 320 2.82 321 2.82 324 2.84 322 2.89 284 2.89 343 2.90 347 2.91
                           307 3.01 319 3.06 345 3.19 418 3.32
 324  0.833  0.925  0.759- 277 2.52 326 2.59 322 2.77 284 2.81 323 2.84 413 2.87  38 2.88 316 2.90
                            41 2.91  26 3.07 321 3.14
 325  0.159  0.004  0.992- 333 2.55 310 2.58 273 2.69   1 2.74 327 2.76 336 2.83 553 2.89 427 2.94
                           394 2.96 286 2.96 430 3.02 330 3.30
 326  0.759  0.928  0.682-  41 2.56 324 2.59 177 2.77  45 2.78 317 2.86 316 2.92 161 2.92 340 2.99
                            26 3.00 167 3.13 321 3.19 166 3.26
 327  0.083  0.088  0.002- 331 2.68 552 2.70 410 2.73 332 2.74 549 2.74 325 2.76 338 2.78   1 2.84
                           329 2.91 553 2.91 333 2.98 330 3.18
 328  0.065  0.089  0.822-  51 2.59 411 2.66 331 2.84 329 2.84 333 2.87 179 2.88 412 2.91 104 2.92
                           105 3.02 330 3.17 334 3.18
 329  0.073  0.165  0.911- 391 2.65 331 2.67 330 2.71 392 2.83 328 2.84 327 2.91 410 2.91 412 2.92
                           386 2.97 338 3.08 537 3.22
 330  0.167  0.105  0.902- 339 2.66 329 2.71 333 2.75 338 2.82 394 2.91 336 2.94 334 2.94 337 3.16
                           328 3.17 327 3.18 391 3.24 325 3.30
 331  0.006  0.079  0.923- 332 2.57 393 2.63 329 2.67 410 2.68 327 2.68 333 2.79 328 2.84 414 2.94
                           411 3.09 530 3.13 416 3.30
 332  0.008  0.004  0.998- 331 2.57 549 2.67 503 2.73 327 2.74 428 2.77 393 2.87 310 2.96   1 2.97
                           530 3.01 283 3.06 280 3.10 333 3.16
 333  0.100  0.014  0.906- 325 2.55 286 2.68 330 2.75 334 2.76 331 2.79 328 2.87 327 2.98 411 2.99
                           288 3.00 310 3.03 332 3.16 283 3.28
 334  0.174  0.016  0.819- 104 2.55 394 2.62 353 2.67 333 2.76 264 2.79  32 2.79 337 2.82 286 2.88
                           330 2.94 179 2.99 328 3.18 288 3.23
 335  0.334  0.155  0.992- 396 2.65 339 2.77 366 2.78 556 2.78 336 2.78 399 2.91 560 2.95 540 2.97
                           372 2.99 557 3.04 576 3.08
 336  0.245  0.083  0.992- 553 2.67 394 2.77 335 2.78 556 2.83 325 2.83 338 2.86 339 2.90 395 2.92
                           330 2.94 430 3.12 557 3.13 366 3.23
 337  0.265  0.089  0.817- 367 2.54  29 2.72 365 2.74  30 2.77 366 2.80 334 2.82 394 2.88  32 2.89
                           104 2.97 339 3.08 330 3.16
 338  0.165  0.169  0.999- 369 2.63 532 2.63 391 2.72 327 2.78 330 2.82 553 2.82 336 2.86 537 2.92
                           552 2.93 556 2.97 339 2.99 329 3.08
 339  0.253  0.172  0.913- 370 2.51 330 2.66 369 2.75 335 2.77 391 2.87 367 2.90 336 2.90 338 2.99
                           366 3.06 372 3.06 337 3.08
 340  0.674  0.839  0.675- 342 2.58 352 2.59 167 2.79 316 2.81 166 2.84 317 2.88 168 2.88 326 2.99
                           207 3.02 363 3.06  73 3.09 209 3.20
 341  0.520  0.910  0.752- 363 2.52 362 2.69 358 2.71 270 2.73 352 2.80 272 2.93  50 2.95 359 3.08
                           361 3.10 360 3.10 400 3.16
 342  0.665  0.754  0.738- 340 2.58 210 2.72 363 2.74 209 2.77  73 2.78 208 2.86  74 2.87 316 2.97
                           276 3.08 301 3.09 297 3.24
 343  0.987  0.746  0.768- 307 2.65 282 2.71 346 2.76 229 2.79  62 2.79 350 2.87 234 2.88 323 2.90
                           345 2.94 319 3.01  76 3.17
 344  0.839  0.661  0.680- 347 2.62 346 2.68 209 2.71  78 2.76  58 2.81 129 2.96 345 2.96 127 2.97
                           120 3.11  60 3.15 210 3.18 146 3.35
 345  0.919  0.753  0.668- 122 2.59 321 2.61 319 2.67 347 2.72 129 2.76 343 2.94 344 2.96 176 3.05
                           127 3.12  76 3.13 346 3.16 323 3.19
 346  0.922  0.654  0.753- 306 2.68 344 2.68  58 2.70 234 2.71  82 2.73 343 2.76 347 2.94 307 2.96
                           224 3.02  76 3.12  60 3.15 345 3.16
 347  0.842  0.744  0.749- 321 2.59 344 2.62 302 2.65 209 2.65 307 2.65 345 2.72 306 2.81 323 2.91
                           346 2.94 316 2.95 210 3.09
 348  0.161  0.996  0.659- 678 2.51 155 2.68 178 2.73 179 2.86 189 2.89  32 2.93 349 2.96 353 2.97
                           354 3.02 659 3.05  28 3.20 104 3.28
 349  0.076  0.910  0.675- 320 2.63 319 2.74 179 2.75 155 2.76 353 2.83 350 2.84 170 2.91 348 2.96
                           189 3.04 351 3.05 187 3.08 318 3.20
 350  0.073  0.827  0.758- 282 2.61 319 2.68  65 2.73 229 2.79 288 2.82 349 2.84 320 2.85 343 2.87
                            61 2.89 351 2.96 353 3.14
 351  0.166  0.822  0.678-  61 2.54 152 2.75  65 2.79 355 2.81 187 2.87 189 2.95 350 2.96  66 2.97
                           354 2.98 349 3.05 353 3.18 195 3.18
 352  0.599  0.916  0.669- 340 2.59 167 2.73 358 2.74 317 2.75  45 2.76 341 2.80 168 2.85 203 2.85
                            50 2.93 158 2.99 363 3.13 362 3.13
 353  0.156  0.926  0.759- 288 2.43 179 2.66 334 2.67 264 2.81 349 2.83 355 2.88 348 2.97  32 3.03
                           354 3.09 350 3.14 351 3.18
 354  0.250  0.911  0.674-  32 2.68 356 2.80 364 2.82 198 2.86 678 2.94 355 2.94 351 2.98 189 3.00
                           348 3.02 357 3.02 353 3.09 195 3.26
 355  0.235  0.838  0.769- 262 2.55 264 2.67  65 2.69 351 2.81 353 2.88 354 2.94 266 3.00  69 3.05
                           357 3.15
 356  0.336  0.834  0.670-  70 2.56  69 2.67 198 2.76 361 2.77 354 2.80  66 2.81 206 2.86 357 2.89
                           360 2.90 106 3.17 195 3.27
 357  0.341  0.913  0.759- 266 2.60 361 2.62 264 2.64 365 2.69 356 2.89 360 2.89 359 3.00 364 3.01
                           354 3.02 270 3.06  32 3.09 355 3.15
 358  0.512  0.988  0.673- 158 2.60  35 2.67 341 2.71 352 2.74 360 2.79  50 2.82 359 2.88  36 2.89
                           203 2.91  33 3.04 200 3.25 672 3.36
 359  0.429  0.999  0.757-  36 2.71 400 2.76  30 2.82 270 2.88 358 2.88 365 2.88 360 2.89 357 3.00
                            33 3.00 397 3.07 341 3.08 364 3.26
 360  0.421  0.918  0.671- 206 2.61 364 2.68 158 2.74 358 2.79 361 2.81 200 2.81 359 2.89 357 2.89
                           356 2.90 362 2.91 198 2.92 341 3.10
 361  0.416  0.835  0.752- 357 2.62 294 2.62  75 2.70 356 2.77  69 2.78 270 2.78 362 2.78 360 2.81
                           266 2.81  70 2.95 341 3.10
 362  0.503  0.830  0.676-  73 2.55  75 2.58 341 2.69 361 2.78 114 2.79 206 2.80 363 2.81 360 2.91
                            70 2.94 158 2.95 352 3.13 168 3.23
 363  0.582  0.827  0.761- 341 2.52  75 2.62 276 2.68 342 2.74 362 2.81 297 2.85  73 2.90 340 3.06
                           352 3.13 317 3.14 272 3.32
 364  0.336  0.988  0.661- 198 2.50 200 2.60 360 2.68  32 2.75 354 2.82  33 2.95 678 2.97 357 3.01
                           665 3.04  30 3.13  28 3.20 359 3.26
 365  0.333  0.000  0.827- 264 2.51 357 2.69 366 2.73 337 2.74 267 2.85 359 2.88 394 2.89  30 2.92
                            32 2.93 398 3.09
 366  0.343  0.084  0.902- 395 2.65 397 2.69 365 2.73 335 2.78 398 2.80 337 2.80 396 2.89 367 2.90
                           399 2.96 394 3.02 339 3.06 336 3.23
 367  0.330  0.171  0.821-  29 2.49 337 2.54 370 2.82  30 2.84 366 2.90 339 2.90 399 2.92   8 2.93
                           375 3.01  34 3.01 397 3.10
 368  0.168  0.341  0.830- 246 2.54  83 2.63   2 2.70 312 2.74   7 2.75   3 2.80 241 2.97 370 3.00
                           371 3.08 391 3.19 392 3.31
 369  0.228  0.256  0.985- 534 2.46 391 2.57 338 2.63 371 2.71 339 2.75 532 2.80 372 2.97 539 3.03
                           556 3.29 370 3.32 542 3.35
 370  0.255  0.255  0.851- 339 2.51 367 2.82 373 2.83 372 2.84 391 2.85 371 2.87 368 3.00   7 3.07
                            29 3.08   8 3.14   2 3.19 369 3.32
 371  0.252  0.347  0.925- 602 2.47 243 2.66 369 2.71 246 2.73 542 2.76 241 2.77 370 2.87 373 2.93
                           372 2.94 368 3.08 534 3.12
 372  0.339  0.263  0.933- 379 2.55 542 2.59 576 2.68 399 2.74 370 2.84 373 2.90 371 2.94 369 2.97
                           335 2.99 375 3.00 339 3.06
 373  0.337  0.338  0.839- 379 2.55 375 2.57 254 2.58 246 2.69 243 2.78 370 2.83   8 2.86 372 2.90
                           371 2.93   7 3.03  24 3.11  89 3.26
 374  0.503  0.332  0.989- 377 2.52 544 2.54 583 2.62 545 2.74 251 2.75 258 2.77 379 2.87 576 2.95
                           380 3.03 548 3.09 252 3.16 574 3.26
 375  0.412  0.264  0.833- 373 2.57 390 2.61 379 2.64 399 2.65  13 2.86  24 2.87   8 2.89 377 2.96
                           372 3.00 367 3.01  34 3.01
 376  0.578  0.244  0.829- 380 2.55  13 2.56  39 2.73 408 2.84  17 2.84  15 2.86 390 2.89 403 2.93
                           377 3.02 383 3.02 384 3.07
 377  0.496  0.254  0.921- 374 2.52 399 2.64 567 2.68 390 2.74 380 2.84 379 2.87 576 2.91 375 2.96
                           544 2.96 403 3.00 376 3.02
 378  0.073  0.329  0.937- 614 2.44 220 2.70 534 2.80 537 2.81 386 2.82 622 2.98 391 3.05 387 3.05
                           241 3.14 312 3.22 392 3.24
 379  0.411  0.337  0.913- 254 2.53 373 2.55 372 2.55 375 2.64 390 2.77 377 2.87 374 2.87 542 2.88
                           252 2.91 258 2.92 243 2.97 576 3.16
 380  0.581  0.328  0.892- 390 2.44 376 2.55 384 2.60 377 2.84 214 2.86 383 2.86 257 2.89 258 3.02
                           374 3.03 544 3.03 381 3.24 251 3.27
 381  0.667  0.338  0.994- 544 2.58 211 2.73 574 2.74 605 2.80 607 2.82 214 2.83 385 2.83 251 2.83
                           383 2.84 603 3.13 590 3.24 380 3.24
 382  0.753  0.239  0.835-  44 2.65 389 2.66 409 2.69 383 2.84 408 2.84  19 2.91 384 2.97  22 3.13
                           385 3.14  17 3.20 315 3.25
 383  0.668  0.252  0.914- 384 2.74 408 2.81 570 2.83 382 2.84 381 2.84 380 2.86 409 2.88 403 2.91
                           544 2.96 385 2.97 376 3.02 607 3.11
 384  0.671  0.330  0.833- 380 2.60 385 2.61 383 2.74  19 2.75  17 2.86  15 2.89  79 2.89 214 2.94
                           213 2.96 382 2.97 376 3.07 257 3.34
 385  0.746  0.346  0.908- 384 2.61 213 2.63 315 2.81 381 2.83 214 2.90 211 2.92 389 2.92 611 2.94
                           223 2.94 383 2.97 607 3.02 382 3.14
 386  0.988  0.253  0.916- 387 2.73 388 2.74 416 2.75 412 2.77 614 2.81 378 2.82 392 2.82 417 2.88
                           615 2.92 329 2.97 410 3.12 537 3.20
 387  0.994  0.336  0.840- 386 2.73 392 2.76 312 2.77  77 2.77 388 2.80 233 2.85  20 2.93 417 2.95
                           220 2.99  25 3.03 378 3.05   3 3.23
 388  0.904  0.263  0.840- 389 2.57 315 2.59 386 2.74 417 2.78 387 2.80 412 2.86  27 2.88 416 2.95
                            25 3.09  20 3.09  22 3.20
 389  0.828  0.257  0.914- 388 2.57 382 2.66 607 2.77 417 2.81 416 2.83 315 2.87 385 2.92 529 2.95
                           409 2.97 615 3.18 611 3.22
 390  0.496  0.330  0.838- 380 2.44 254 2.59 375 2.61  13 2.62 377 2.74 379 2.77 258 2.84 376 2.89
                            95 3.02  15 3.03 257 3.07  24 3.12
 391  0.155  0.238  0.911- 369 2.57 329 2.65 338 2.72 370 2.85 339 2.87 392 2.91 378 3.05 368 3.19
                           330 3.24 537 3.26 534 3.27
 392  0.067  0.250  0.830- 412 2.53 105 2.62  20 2.66 387 2.76 386 2.82 329 2.83 391 2.91   2 2.95
                             3 3.05 378 3.24 368 3.31
 393  0.921  0.011  0.918- 331 2.63 415 2.63 414 2.67 284 2.68 525 2.84 413 2.86 332 2.87 280 2.90
                           530 2.98 283 3.03 411 3.07 837 3.20
 394  0.242  0.011  0.903- 334 2.62 286 2.69 264 2.75 336 2.77 395 2.84 273 2.86 337 2.88 365 2.89
                           330 2.91 325 2.96 366 3.02 267 3.07
 395  0.334  0.004  0.975- 267 2.60 366 2.65 394 2.84 273 2.84 398 2.85 269 2.85 336 2.92 396 2.96
                           435 3.24 433 3.29 557 3.36
 396  0.421  0.088  0.992- 402 2.60 436 2.64 335 2.65 562 2.72 398 2.78 560 2.89 366 2.89 395 2.96
                           435 3.05 567 3.06 399 3.10 557 3.33
 397  0.433  0.097  0.838- 402 2.55 366 2.69 399 2.70 398 2.73  34 2.77  36 2.86 400 2.87  30 3.01
                           359 3.07 367 3.10
 398  0.431  0.009  0.909- 400 2.52 397 2.73 396 2.78 366 2.80 436 2.82 285 2.84 395 2.85 402 2.85
                           269 3.02 270 3.03 365 3.09 267 3.34
 399  0.414  0.183  0.906- 377 2.64 375 2.65 397 2.70 372 2.74 402 2.81 335 2.91 367 2.92 366 2.96
                           576 3.02 396 3.10 567 3.23
 400  0.508  0.005  0.840- 398 2.52 272 2.63 401 2.68 359 2.76 270 2.81 404 2.81 397 2.87  36 3.01
                           285 3.01  50 3.04 402 3.10 341 3.16
 401  0.587  0.083  0.836- 400 2.68  39 2.71 408 2.71  50 2.81 275 2.81  42 2.82 404 2.82 403 2.92
                           402 3.00 407 3.00  36 3.04
 402  0.499  0.105  0.920- 403 2.55 397 2.55 396 2.60 567 2.77 399 2.81 398 2.85 401 3.00 566 3.08
                           400 3.10 404 3.10 436 3.14
 403  0.583  0.167  0.922- 402 2.55 567 2.77 408 2.81 566 2.85 570 2.91 383 2.91 401 2.92 376 2.93
                           377 3.00 407 3.01 544 3.17
 404  0.585  0.010  0.927- 272 2.67 407 2.68 566 2.70 268 2.70 561 2.75 400 2.81 401 2.82 436 2.92
                           285 2.93 279 3.01 275 3.03 402 3.10
 405  0.759  0.093  0.830- 409 2.70 413 2.73  48 2.79  42 2.83  44 2.84  41 2.86 408 2.88 275 2.93
                           415 3.13 407 3.17 406 3.27
 406  0.754  0.993  0.920- 413 2.60 502 2.72 837 2.72 275 2.75 279 2.82 550 2.87 407 2.90 277 2.92
                           525 3.00 415 3.01 561 3.01 405 3.27
 407  0.671  0.079  0.927- 404 2.68 561 2.72 275 2.73 550 2.76 409 2.79 566 2.81 406 2.90 408 2.98
                           401 3.00 403 3.01 570 3.07 405 3.17
 408  0.664  0.164  0.838- 401 2.71 409 2.78 403 2.81 383 2.81 382 2.84 376 2.84 405 2.88  42 2.91
                           407 2.98  39 2.98  44 3.13  17 3.17
 409  0.748  0.164  0.916- 382 2.69 405 2.70 529 2.72 408 2.78 407 2.79 383 2.88 570 2.92 389 2.97
                           550 2.99 415 3.00 607 3.30
 410  0.994  0.157  0.000- 530 2.57 331 2.68 327 2.73 549 2.81 528 2.83 416 2.85 552 2.85 537 2.90
                           615 2.90 329 2.91 608 3.10 386 3.12
 411  0.007  0.996  0.826- 288 2.57 320 2.65 179 2.65 328 2.66 284 2.68 283 2.69  38 2.73 333 2.99
                           393 3.07 331 3.09 414 3.18  51 3.20
 412  0.988  0.181  0.827- 392 2.53  27 2.60  20 2.62 386 2.77 414 2.82 388 2.86 328 2.91 329 2.92
                           105 2.98 416 3.01  51 3.10
 413  0.829  0.006  0.845- 406 2.60 837 2.67 405 2.73 284 2.75 415 2.79 277 2.85 393 2.86 324 2.87
                            48 2.95 414 2.96  41 3.03  38 3.21
 414  0.918  0.090  0.841- 393 2.67  27 2.76 412 2.82 416 2.82 415 2.89 331 2.94  48 2.95 413 2.96
                            38 3.05 411 3.18  51 3.23
 415  0.840  0.082  0.931- 393 2.63 525 2.66 550 2.71 416 2.77 530 2.77 413 2.79 414 2.89 529 2.94
                           409 3.00 406 3.01 405 3.13
 416  0.908  0.173  0.922- 386 2.75 415 2.77 615 2.79 414 2.82 389 2.83 410 2.85 388 2.95 529 2.97
                           412 3.01 530 3.10 331 3.30
 417  0.908  0.340  0.926- 223 2.49 611 2.71 388 2.78 222 2.80 389 2.81 315 2.81 386 2.88 387 2.95
                           614 2.97 233 3.04 220 3.08 615 3.09
 418  0.900  0.830  0.902- 837 2.62 307 2.68 280 2.84 309 2.88 282 2.92 510 2.95 284 2.99 305 3.00
                           457 3.17 281 3.20 283 3.31 323 3.32 278 3.35
 419  0.664  0.424  0.592- 135 2.47  94 2.60 101 2.66 715 2.69 709 2.76 133 2.80  18 2.81  90 2.82
                           701 2.86 697 2.99 714 3.12
 420  0.680  0.427  0.411- 732 2.58 744 2.69 313 2.69 713 2.71 714 2.83 699 2.83 133 2.88 746 2.99
                           764 2.99 697 3.08 737 3.09
 421  0.837  0.649  0.165- 750 2.64 445 2.68 826 2.69 595 2.70 822 2.71 522 2.78 523 2.81 422 2.86
                           464 2.93 431 3.18 827 3.22
 422  0.911  0.740  0.161- 826 2.55 445 2.61 827 2.75 431 2.83 421 2.86 451 2.91 452 2.99 504 3.10
                           785 3.13 808 3.19 506 3.24
 423  0.834  0.650  0.009- 445 2.72 470 2.74 431 2.76 309 2.80 523 2.81 303 2.82 464 2.88 212 2.91
                           457 2.93 226 3.01 468 3.03 308 3.12
 424  0.157  0.995  0.168-   1 2.55 812 2.65 430 2.81 833 2.85 426 2.87 511 2.93 555 2.96 551 2.96
                           787 2.97 427 3.07 443 3.09 553 3.11
 425  0.085  0.831  0.071- 228 2.51 426 2.59 428 2.75 449 2.77 311 2.79 427 2.82 451 2.88 281 2.90
                           310 2.94 504 2.96 448 3.02
 426  0.085  0.904  0.149- 425 2.59 504 2.71 834 2.71 428 2.74 427 2.75 424 2.87   1 2.95 554 2.99
                           812 3.09 835 3.11
 427  0.168  0.913  0.073- 430 2.67 311 2.70 310 2.72 273 2.74 426 2.75 425 2.82   1 2.91 325 2.94
                           432 2.98 443 3.03 424 3.07
 428  0.007  0.913  0.068- 281 2.72 426 2.74 425 2.75 332 2.77 503 2.78 508 2.84 506 2.85 310 2.89
                           280 2.91 504 2.95   1 3.13 554 3.25
 429  0.337  0.992  0.170- 794 2.49 435 2.73 517 2.75 791 2.82 557 2.85 438 2.86 433 2.92 787 2.95
                           443 3.05 430 3.09 559 3.13 555 3.14
 430  0.240  0.995  0.087- 427 2.67 553 2.67 424 2.81 273 2.81 555 2.85 557 2.93 433 2.93 443 2.98
                           325 3.02 429 3.09 336 3.12
 431  0.832  0.744  0.075- 457 2.66 468 2.71 423 2.76 445 2.83 422 2.83 510 2.87 472 2.99 467 2.99
                           506 3.06 464 3.15 421 3.18
 432  0.252  0.824  0.077- 455 2.55 454 2.63 449 2.65 261 2.71 263 2.73 434 2.76 311 2.89 433 2.89
                           443 2.96 427 2.98 273 3.36
 433  0.329  0.914  0.078- 263 2.66 437 2.77 434 2.81 269 2.87 432 2.89 429 2.92 435 2.92 430 2.93
                           443 3.01 273 3.01 438 3.04 395 3.29
 434  0.330  0.833  0.160- 455 2.62 443 2.67 469 2.74 438 2.74 432 2.76 433 2.81 454 2.82 814 2.91
                           795 2.92 437 2.96 791 3.00 788 3.16
 435  0.410  0.004  0.085- 557 2.70 429 2.73 436 2.80 269 2.83 433 2.92 562 2.94 396 3.05 559 3.11
                           438 3.12 564 3.15 440 3.17 395 3.24
 436  0.494  0.008  0.006- 396 2.64 562 2.67 269 2.74 435 2.80 398 2.82 285 2.82 565 2.91 268 2.91
                           404 2.92 566 2.98 440 3.09 402 3.14
 437  0.415  0.839  0.072- 269 2.74 455 2.74 461 2.74 440 2.76 263 2.77 433 2.77 442 2.78 438 2.82
                           293 2.82 469 2.90 434 2.96
 438  0.417  0.905  0.167- 798 2.63 434 2.74 440 2.80 437 2.82 794 2.85 429 2.86 795 2.88 791 3.01
                           433 3.04 435 3.12 564 3.24
 439  0.586  0.833  0.074- 496 2.62 442 2.63 465 2.80 461 2.81 440 2.81 292 2.82 268 2.89 463 2.89
                           500 2.89 499 2.95 441 2.96
 440  0.501  0.911  0.088- 441 2.62 442 2.69 437 2.76 438 2.80 439 2.81 268 2.92 269 2.97 565 3.05
                           436 3.09 564 3.09 435 3.17
 441  0.579  0.917  0.163- 440 2.62 471 2.70 798 2.73 500 2.81 564 2.81 499 2.85 565 2.85 439 2.96
                           804 3.13 796 3.18 473 3.31
 442  0.506  0.841  0.002- 285 2.60 439 2.63 440 2.69 268 2.70 461 2.74 437 2.78 271 2.83 299 2.84
                           274 2.95 269 2.95 293 2.96 292 2.98
 443  0.246  0.904  0.169- 788 2.65 434 2.67 787 2.89 812 2.89 791 2.89 432 2.96 430 2.98 433 3.01
                           427 3.03 429 3.05 424 3.09
 444  0.756  0.996  0.083- 569 2.51 505 2.59 502 2.71 550 2.76 507 2.76 499 2.78 525 2.86 561 2.89
                           501 2.91 526 2.97 471 3.09 568 3.11
 445  0.914  0.661  0.087- 422 2.61 421 2.68 423 2.72 452 2.72 522 2.82 431 2.83 457 2.90 470 2.91
                           451 2.97 523 3.01 446 3.04 623 3.11
 446  0.989  0.666  0.987- 305 2.55 240 2.58 308 2.61 230 2.61 457 2.65 623 2.89 447 2.95 470 2.95
                           445 3.04 451 3.06 314 3.16 228 3.18
 447  0.077  0.668  0.071- 228 2.66 227 2.67 451 2.68 623 2.80 452 2.83 450 2.91 314 2.92 446 2.95
                           621 2.96 448 2.97 619 2.99 449 3.02
 448  0.090  0.748  0.163- 755 2.73 785 2.73 754 2.76 450 2.80 834 2.81 449 2.82 451 2.92 447 2.97
                           504 2.99 425 3.02 452 3.12
 449  0.168  0.753  0.077- 227 2.60 432 2.65 228 2.70 454 2.74 450 2.77 425 2.77 448 2.82 311 2.86
                           261 2.91 453 2.92 447 3.02
 450  0.168  0.665  0.149- 619 2.61 621 2.62 449 2.77 448 2.80 587 2.80 786 2.85 454 2.87 754 2.88
                           447 2.91 453 2.92 755 2.94 783 3.06
 451  0.001  0.748  0.082- 447 2.68 504 2.75 228 2.82 506 2.85 425 2.88 452 2.90 422 2.91 448 2.92
                           457 2.95 445 2.97 446 3.06 281 3.28
 452  0.001  0.655  0.158- 754 2.61 826 2.71 445 2.72 522 2.81 447 2.83 451 2.90 619 2.95 777 2.98
                           623 2.98 422 2.99 785 3.01 448 3.12
 453  0.260  0.675  0.071- 227 2.65 260 2.67 455 2.75 244 2.80 454 2.90 449 2.92 450 2.92 456 2.92
                           621 2.95 261 2.99 578 3.04 587 3.21
 454  0.245  0.754  0.160- 432 2.63 449 2.74 788 2.74 814 2.75 434 2.82 450 2.87 453 2.90 455 2.90
                           786 2.95 755 3.02 456 3.08
 455  0.335  0.759  0.081- 432 2.55 434 2.62 469 2.66 437 2.74 453 2.75 458 2.75 263 2.84 454 2.90
                           293 3.00 456 3.07 260 3.07 261 3.21
 456  0.335  0.664  0.165- 458 2.61 587 2.71 814 2.78 582 2.78 453 2.92 816 2.93 469 2.93 578 2.95
                           786 2.97 455 3.07 454 3.08 782 3.18
 457  0.912  0.743  0.999- 309 2.52 446 2.65 431 2.66 305 2.72 506 2.72 445 2.90 423 2.93 451 2.95
                           510 3.02 418 3.17 308 3.18 281 3.28
 458  0.406  0.670  0.084- 586 2.49 456 2.61 455 2.75 469 2.76 260 2.79 578 2.88 459 2.96 293 3.03
                           582 3.06 461 3.10 462 3.17 599 3.21
 459  0.495  0.670  0.000- 298 2.58 460 2.68 293 2.72 295 2.77 586 2.77 299 2.78 589 2.82 461 2.94
                           458 2.96 292 3.03 599 3.06 235 3.08
 460  0.573  0.680  0.078- 459 2.68 465 2.68 461 2.71 586 2.73 292 2.76 593 2.77 462 2.78 589 2.87
                           300 2.91 466 2.94 463 3.00 588 3.07
 461  0.496  0.761  0.081- 460 2.71 437 2.74 442 2.74 469 2.76 439 2.81 293 2.84 462 2.94 459 2.94
                           463 3.09 458 3.10 292 3.15
 462  0.505  0.678  0.170- 586 2.45 817 2.60 818 2.72 460 2.78 588 2.78 816 2.85 463 2.87 469 2.93
                           461 2.94 740 2.95 582 3.16 458 3.17
 463  0.589  0.761  0.169- 466 2.62 823 2.71 818 2.78 465 2.81 817 2.81 500 2.82 462 2.87 439 2.89
                           796 2.97 460 3.00 461 3.09
 464  0.744  0.649  0.087- 595 2.52 212 2.63 593 2.82 423 2.88 300 2.91 421 2.93 466 3.02 468 3.04
                           523 3.06 465 3.10 467 3.14 431 3.15
 465  0.662  0.746  0.081- 460 2.68 466 2.74 467 2.77 496 2.78 292 2.79 439 2.80 463 2.81 468 2.85
                           300 2.85 500 3.06 464 3.10 472 3.33
 466  0.654  0.675  0.168- 817 2.58 463 2.62 588 2.73 465 2.74 822 2.75 823 2.87 743 2.87 467 2.93
                           460 2.94 593 2.94 464 3.02
 467  0.744  0.756  0.160- 822 2.50 803 2.76 465 2.77 500 2.82 827 2.90 466 2.93 472 2.98 431 2.99
                           823 3.01 464 3.14
 468  0.748  0.740  0.001- 303 2.69 431 2.71 309 2.82 300 2.82 465 2.85 304 2.87 496 2.92 278 2.93
                           423 3.03 464 3.04 472 3.08 510 3.13
 469  0.413  0.756  0.159- 455 2.66 434 2.74 795 2.74 461 2.76 458 2.76 818 2.86 437 2.90 456 2.93
                           462 2.93 816 2.99 814 3.01
 470  0.915  0.571  0.008- 623 2.60 225 2.64 523 2.68 524 2.68 423 2.74 240 2.88 445 2.91 219 2.92
                           446 2.95 308 2.99 226 3.11 617 3.21
 471  0.656  0.997  0.162- 565 2.56 499 2.58 569 2.61 441 2.70 568 2.80 474 2.84 804 2.97 444 3.09
                           473 3.10 501 3.20 573 3.36
 472  0.759  0.843  0.075- 510 2.49 502 2.51 507 2.78 501 2.81 496 2.88 467 2.98 500 2.98 431 2.99
                           499 2.99 468 3.08 465 3.33
 473  0.575  0.013  0.260- 474 2.68 498 2.69 800 2.69 564 2.71 497 2.73 793 2.88 471 3.10 573 3.18
                           804 3.29 441 3.31 798 3.31 802 3.31
 474  0.672  0.067  0.255- 475 2.54 473 2.68 509 2.68 476 2.81 471 2.84 569 2.84 801 2.93 802 3.01
                           477 3.08 572 3.16 497 3.18 573 3.32
 475  0.745  0.139  0.237- 474 2.54 572 2.56 479 2.58 569 2.61 482 2.87 476 2.90 477 2.97 761 3.04
                           604 3.20 571 3.33
 476  0.752  0.076  0.338- 477 2.55 482 2.66 484 2.77 676 2.81 802 2.81 474 2.81 632 2.85 475 2.90
                           801 2.97 666 3.00 159 3.02 479 3.07
 477  0.686  0.158  0.342- 476 2.55 710 2.59 676 2.79 762 2.80 761 2.85 666 2.86 509 2.90 673 2.94
                           475 2.97 629 2.98 474 3.08 497 3.16 482 3.35
 478  0.990  0.173  0.327- 765 2.69 485 2.75 716 2.83 480 2.85 521 2.90 767 2.95 481 2.96 514 3.01
                           635 3.02 630 3.04 512 3.09 656 3.16
[...]
377       -0.000  -0.000   0.000  -0.000
378       -0.000  -0.000   0.000  -0.000
379       -0.000  -0.000   0.000  -0.000
380       -0.000  -0.000   0.000  -0.000
381       -0.000  -0.000   0.000  -0.000
382        0.000   0.000   0.000   0.000
383        0.000   0.000   0.000   0.000
384        0.000   0.000   0.000   0.000
385        0.000   0.000   0.000   0.000
386        0.000   0.000   0.000   0.000
387        0.000   0.000   0.000   0.000
388        0.000   0.000   0.000   0.000
389        0.000   0.000   0.000   0.000
390       -0.000  -0.000   0.000  -0.000
391       -0.000  -0.000   0.000  -0.000
392        0.000   0.000   0.000   0.000
393       -0.000  -0.000   0.000  -0.000
394       -0.000  -0.000   0.000  -0.000
395       -0.000  -0.000   0.000  -0.000
396       -0.000  -0.000   0.000  -0.000
397       -0.000  -0.000   0.000  -0.000
398       -0.000  -0.000   0.000  -0.000
399       -0.000  -0.000   0.000  -0.000
400       -0.000  -0.000   0.000  -0.000
401       -0.000  -0.000   0.000  -0.000
402       -0.000  -0.000   0.000  -0.000
403       -0.000  -0.000   0.000  -0.000
404       -0.000  -0.000   0.000  -0.000
405        0.000   0.000   0.000   0.000
406       -0.000  -0.000   0.000  -0.000
407       -0.000  -0.000   0.000  -0.000
408        0.000   0.000   0.000   0.000
409        0.000   0.000   0.000   0.000
410       -0.000  -0.000   0.000  -0.000
411       -0.000  -0.000   0.000  -0.000
412        0.000   0.000   0.000   0.000
413       -0.000  -0.000   0.000  -0.000
414        0.000   0.000   0.000   0.000
415       -0.000  -0.000   0.000  -0.000
416        0.000   0.000   0.000   0.000
417        0.000   0.000   0.000   0.000
418       -0.000  -0.000   0.000  -0.000
419        0.000   0.000   0.000   0.000
420       -0.000  -0.000   0.000  -0.000
421       -0.000  -0.000   0.000  -0.000
422       -0.000  -0.000   0.000  -0.000
423       -0.000  -0.000   0.000  -0.000
424       -0.000  -0.000   0.000  -0.000
425       -0.000  -0.000   0.000  -0.000
426       -0.000  -0.000   0.000  -0.000
427       -0.000  -0.000   0.000  -0.000
428       -0.000  -0.000   0.000  -0.000
429        0.000   0.000   0.000   0.000
430       -0.000  -0.000   0.000  -0.000
431       -0.000  -0.000   0.000  -0.000
432        0.000   0.000   0.000   0.000
433        0.000   0.000   0.000   0.000
434        0.000   0.000   0.000   0.000
435       -0.000  -0.000   0.000  -0.000
436       -0.000  -0.000   0.000  -0.000
437        0.000   0.000   0.000   0.000
438        0.000   0.000   0.000   0.000
439       -0.000  -0.000   0.000  -0.000
440       -0.000  -0.000   0.000  -0.000
441       -0.000  -0.000   0.000  -0.000
442       -0.000  -0.000   0.000  -0.000
443        0.000   0.000   0.000   0.000
444       -0.000  -0.000   0.000  -0.000
445       -0.000  -0.000   0.000  -0.000
446       -0.000  -0.000   0.000  -0.000
447       -0.000  -0.000   0.000  -0.000
448        0.000   0.000   0.000   0.000
449        0.000   0.000   0.000   0.000
450        0.000   0.000   0.000   0.000
451       -0.000  -0.000   0.000  -0.000
452       -0.000  -0.000   0.000  -0.000
453        0.000   0.000   0.000   0.000
454        0.000   0.000   0.000   0.000
455        0.000   0.000   0.000   0.000
456        0.000   0.000   0.000   0.000
457       -0.000  -0.000   0.000  -0.000
458        0.000   0.000   0.000   0.000
459       -0.000  -0.000   0.000  -0.000
460       -0.000  -0.000   0.000  -0.000
461       -0.000  -0.000   0.000  -0.000
462       -0.000  -0.000   0.000  -0.000
463       -0.000  -0.000   0.000  -0.000
464       -0.000  -0.000   0.000  -0.000
465       -0.000  -0.000   0.000  -0.000
466       -0.000  -0.000   0.000  -0.000
467       -0.000  -0.000   0.000  -0.000
468       -0.000  -0.000   0.000  -0.000
469        0.000   0.000   0.000   0.000
470       -0.000  -0.000   0.000  -0.000
471       -0.000  -0.000   0.000  -0.000
472       -0.000  -0.000   0.000  -0.000
473        0.000   0.000   0.000   0.000
474        0.000   0.000   0.000   0.000
475        0.000   0.000   0.000   0.000
476        0.000   0.000   0.000   0.000
477        0.000   0.000   0.000   0.000
478        0.000   0.000   0.000   0.000
479        0.000   0.000   0.000   0.000
480        0.000   0.000   0.000   0.000
481        0.000   0.000   0.000   0.000
482        0.000   0.000   0.000   0.000
483        0.000   0.000   0.000   0.000
484        0.000  -0.000   0.000   0.000
485        0.000   0.000   0.000   0.000
486        0.000   0.000   0.000   0.000
487        0.000   0.000   0.000   0.000
488        0.000   0.000   0.000   0.000
489        0.000   0.000   0.000   0.000
490        0.000   0.000   0.000   0.000
491        0.000   0.000   0.000   0.000
492        0.000   0.000   0.000   0.000
493        0.000   0.000   0.000   0.000
494        0.000   0.000   0.000   0.000
495        0.000   0.000   0.000   0.000
496       -0.000  -0.000   0.000  -0.000
497        0.000   0.000   0.000   0.000
498        0.000   0.000   0.000   0.000
499       -0.000  -0.000   0.000  -0.000
500       -0.000  -0.000   0.000  -0.000
501       -0.000  -0.000   0.000  -0.000
502       -0.000  -0.000   0.000  -0.000
503       -0.000  -0.000   0.000  -0.000
504       -0.000  -0.000   0.000  -0.000
505       -0.000  -0.000   0.000  -0.000
506       -0.000  -0.000   0.000  -0.000
507       -0.000  -0.000   0.000  -0.000
508       -0.000  -0.000   0.000  -0.000
509        0.000   0.000   0.000   0.000
510       -0.000  -0.000   0.000  -0.000
511        0.000   0.000   0.000   0.000
512        0.000   0.000   0.000   0.000
513        0.000   0.000   0.000   0.000
514        0.000   0.000   0.000   0.000
515        0.000   0.000   0.000   0.000
516        0.000   0.000   0.000   0.000
517        0.000   0.000   0.000   0.000
518        0.000   0.000   0.000   0.000
519        0.000   0.000   0.000   0.000
520        0.000   0.000   0.000   0.000
521        0.000   0.000   0.000   0.000
522       -0.000  -0.000   0.000  -0.000
523       -0.000  -0.000   0.000  -0.000
524       -0.000  -0.000   0.000  -0.000
525       -0.000  -0.000   0.000  -0.000
526        0.000  -0.000   0.000  -0.000
527       -0.000  -0.000   0.000  -0.000
528        0.000   0.000   0.000   0.000
529        0.000   0.000   0.000   0.000
530       -0.000  -0.000   0.000  -0.000
531        0.000   0.000   0.000   0.000
532       -0.000  -0.000   0.000  -0.000
533       -0.000  -0.000   0.000  -0.000
534       -0.000  -0.000   0.000  -0.000
535        0.000   0.000   0.000   0.000
536        0.000   0.000   0.000   0.000
537       -0.000  -0.000   0.000  -0.000
538        0.000   0.000   0.000   0.000
539        0.000   0.000   0.000   0.000
540        0.000  -0.000   0.000  -0.000
541        0.000   0.000   0.000   0.000
542       -0.000  -0.000   0.000  -0.000
543        0.000   0.000   0.000   0.000
544       -0.000  -0.000   0.000  -0.000
545       -0.000  -0.000   0.000  -0.000
546        0.000   0.000   0.000   0.000
547        0.000   0.000   0.000   0.000
548       -0.000   0.000   0.000   0.000
549       -0.000  -0.000   0.000  -0.000
550       -0.000  -0.000   0.000  -0.000
551       -0.000  -0.000   0.000  -0.000
552       -0.000  -0.000   0.000  -0.000
553       -0.000  -0.000   0.000  -0.000
554       -0.000  -0.000   0.000  -0.000
555        0.000   0.000   0.000   0.000
556       -0.000  -0.000   0.000  -0.000
557       -0.000  -0.000   0.000  -0.000
558        0.000   0.000   0.000   0.000
559        0.000   0.000   0.000   0.000
560       -0.000  -0.000   0.000  -0.000
561       -0.000  -0.000   0.000  -0.000
562       -0.000  -0.000   0.000  -0.000
563       -0.000  -0.000   0.000  -0.000
564       -0.000  -0.000   0.000  -0.000
565       -0.000  -0.000   0.000  -0.000
566       -0.000  -0.000   0.000  -0.000
567       -0.000  -0.000   0.000  -0.000
568       -0.000  -0.000   0.000  -0.000
569       -0.000  -0.000   0.000  -0.000
570       -0.000  -0.000   0.000  -0.000
571        0.000   0.000   0.000   0.000
572        0.000   0.000   0.000   0.000
573        0.000   0.000   0.000   0.000
574       -0.000  -0.000   0.000  -0.000
575        0.000   0.000   0.000   0.000
576       -0.000  -0.000   0.000  -0.000
577        0.000   0.000   0.000   0.000
578        0.000   0.000   0.000   0.000
579        0.000   0.000   0.000   0.000
580        0.000   0.000   0.000   0.000
581       -0.000  -0.000   0.000  -0.000
582        0.000   0.000   0.000   0.000
583       -0.000  -0.000   0.000  -0.000
584       -0.000  -0.000   0.000  -0.000
585       -0.000  -0.000   0.000  -0.000
586       -0.000  -0.000   0.000  -0.000
587        0.000   0.000   0.000   0.000
588       -0.000  -0.000   0.000  -0.000
589       -0.000  -0.000   0.000  -0.000
590       -0.000  -0.000   0.000  -0.000
591       -0.000  -0.000   0.000  -0.000
592       -0.000  -0.000   0.000  -0.000
593       -0.000  -0.000   0.000  -0.000
594       -0.000  -0.000   0.000  -0.000
595       -0.000  -0.000   0.000  -0.000
596       -0.000  -0.000   0.000  -0.000
597       -0.000  -0.000   0.000  -0.000
598        0.000  -0.000   0.000  -0.000
599       -0.000  -0.000   0.000  -0.000
600        0.000   0.000   0.000   0.000
601        0.000   0.000   0.000   0.000
602       -0.000  -0.000   0.000  -0.000
603        0.000   0.000   0.000   0.000
604        0.000   0.000   0.000   0.000
605        0.000   0.000   0.000   0.000
606        0.000   0.000   0.000   0.000
607        0.000   0.000   0.000   0.000
608        0.000   0.000   0.000   0.000
609        0.000   0.000   0.000   0.000
610        0.000   0.000   0.000   0.000
611        0.000   0.000   0.000   0.000
612        0.000   0.000   0.000   0.000
613        0.000   0.000   0.000   0.000
614       -0.000  -0.000   0.000  -0.000
615        0.000   0.000   0.000   0.000
616        0.000   0.000   0.000   0.000
617       -0.000  -0.000   0.000  -0.000
618       -0.000  -0.000   0.000  -0.000
619       -0.000  -0.000   0.000  -0.000
620       -0.000  -0.000   0.000  -0.000
621        0.000  -0.000   0.000  -0.000
622       -0.000  -0.000   0.000  -0.000
623       -0.000  -0.000   0.000  -0.000
624       -0.000  -0.000   0.000  -0.000
625       -0.000  -0.000   0.000  -0.000
626        0.000   0.000   0.000   0.000
627        0.000   0.000   0.000   0.000
628        0.000   0.000   0.000   0.000
629        0.000   0.000   0.000   0.000
630        0.000   0.000   0.000   0.000
631        0.000   0.000   0.000   0.000
632        0.000   0.000   0.000   0.000
633        0.000   0.000   0.000   0.000
634        0.000   0.000   0.000   0.000
635        0.000   0.000   0.000   0.000
636        0.000   0.000   0.000   0.000
637        0.000   0.000   0.000   0.000
638        0.000   0.000   0.000   0.000
639        0.000   0.000   0.000   0.000
640        0.000   0.000   0.000   0.000
641        0.000   0.000   0.000   0.000
642        0.000   0.000   0.000   0.000
643        0.000   0.000   0.000   0.000
644        0.000   0.000   0.000   0.000
645        0.000   0.000   0.000   0.000
646        0.000   0.000   0.000   0.000
647        0.000   0.000   0.000   0.000
648        0.000   0.000   0.000   0.000
649        0.000   0.000   0.000   0.000
650        0.000   0.000   0.000   0.000
651        0.000   0.000   0.000   0.000
652        0.000   0.000   0.000   0.000
653        0.000   0.000   0.000   0.000
654        0.000   0.000   0.000   0.000
655        0.000   0.000   0.000   0.000
656        0.000   0.000   0.000   0.000
657        0.000   0.000   0.000   0.000
658        0.000   0.000   0.000   0.000
659       -0.000  -0.000   0.000  -0.000
660        0.000   0.000   0.000   0.000
661        0.000  -0.000   0.000  -0.000
662        0.000   0.000   0.000   0.000
663        0.000   0.000   0.000   0.000
664        0.000   0.000   0.000   0.000
665       -0.000  -0.000   0.000  -0.000
666        0.000   0.000   0.000   0.000
667        0.000   0.000   0.000   0.000
668        0.000   0.000   0.000   0.000
669        0.000   0.000   0.000   0.000
670        0.000   0.000   0.000   0.000
671        0.000   0.000   0.000   0.000
672        0.000   0.000   0.000   0.000
673        0.000   0.000   0.000   0.000
674        0.000   0.000   0.000   0.000
675        0.000   0.000   0.000   0.000
676        0.000   0.000   0.000   0.000
677        0.000   0.000   0.000   0.000
678       -0.000  -0.000   0.000  -0.000
679        0.000   0.000   0.000   0.000
680        0.000   0.000   0.000   0.000
681        0.000   0.000   0.000   0.000
682       -0.000  -0.000   0.000  -0.000
683        0.000   0.000   0.000   0.000
684        0.000   0.000   0.000   0.000
685        0.000   0.000   0.000   0.000
686        0.000  -0.000   0.000  -0.000
687        0.000   0.000   0.000   0.000
688        0.000   0.000   0.000   0.000
689        0.000   0.000   0.000   0.000
690       -0.000  -0.000   0.000  -0.000
691        0.000   0.000   0.000   0.000
692        0.000   0.000   0.000   0.000
693        0.000   0.000   0.000   0.000
694        0.000  -0.000   0.000   0.000
695        0.000  -0.000   0.000   0.000
696        0.000   0.000   0.000   0.000
697        0.000  -0.000   0.000  -0.000
698        0.000   0.000   0.000   0.000
699       -0.000  -0.000   0.000  -0.000
700       -0.000  -0.000   0.000  -0.000
701       -0.000  -0.000   0.000  -0.000
702        0.000  -0.000   0.000  -0.000
703       -0.000  -0.000   0.000  -0.000
704       -0.000  -0.000   0.000  -0.000
705        0.000   0.000   0.000   0.000
706        0.000   0.000   0.000   0.000
707        0.000  -0.000   0.000   0.000
708        0.000   0.000   0.000   0.000
709        0.000   0.000   0.000   0.000
710        0.000   0.000   0.000   0.000
711        0.000   0.000   0.000   0.000
712        0.000   0.000   0.000   0.000
713        0.000   0.000   0.000   0.000
714        0.000   0.000   0.000   0.000
715        0.000   0.000   0.000   0.000
716        0.000   0.000   0.000   0.000
717        0.000   0.000   0.000   0.000
718        0.000   0.000   0.000   0.000
719        0.000   0.000   0.000   0.000
720        0.000   0.000   0.000   0.000
721        0.000   0.000   0.000   0.000
722        0.000   0.000   0.000   0.000
723        0.000   0.000   0.000   0.000
724        0.000   0.000   0.000   0.000
725        0.000   0.000   0.000   0.000
726        0.000   0.000   0.000   0.000
727        0.000   0.000   0.000   0.000
728       -0.000  -0.000   0.000  -0.000
729       -0.000  -0.000   0.000  -0.000
730        0.000   0.000   0.000   0.000
731       -0.000  -0.000   0.000  -0.000
732        0.000  -0.000   0.000  -0.000
733       -0.000  -0.000   0.000  -0.000
734       -0.000  -0.000   0.000  -0.000
735        0.000   0.000   0.000   0.000
736        0.000   0.000   0.000   0.000
737        0.000   0.000   0.000   0.000
738       -0.000  -0.000   0.000  -0.000
739       -0.000  -0.000   0.000  -0.000
740       -0.000  -0.000   0.000  -0.000
741       -0.000  -0.000   0.000  -0.000
742       -0.000  -0.000   0.000  -0.000
743       -0.000  -0.000   0.000  -0.000
744        0.000   0.000   0.000   0.000
745       -0.000  -0.000   0.000  -0.000
746       -0.000  -0.000   0.000  -0.000
747        0.000   0.000   0.000   0.000
748        0.000   0.000   0.000   0.000
749       -0.000  -0.000   0.000  -0.000
750       -0.000  -0.000   0.000  -0.000
751        0.000   0.000   0.000   0.000
752       -0.000  -0.000   0.000  -0.000
753       -0.000  -0.000   0.000  -0.000
754        0.000   0.000   0.000   0.000
755        0.000   0.000   0.000   0.000
756        0.000   0.000   0.000   0.000
757       -0.000  -0.000   0.000  -0.000
758        0.000   0.000   0.000   0.000
759        0.000   0.000   0.000   0.000
760        0.000   0.000   0.000   0.000
761        0.000   0.000   0.000   0.000
762        0.000   0.000   0.000   0.000
763        0.000   0.000   0.000   0.000
764        0.000   0.000   0.000   0.000
765        0.000   0.000   0.000   0.000
766        0.000   0.000   0.000   0.000
767        0.000   0.000   0.000   0.000
768        0.000   0.000   0.000   0.000
769        0.000   0.000   0.000   0.000
770        0.000   0.000   0.000   0.000
771        0.000   0.000   0.000   0.000
772        0.000   0.000   0.000   0.000
773        0.000   0.000   0.000   0.000
774        0.000   0.000   0.000   0.000
775        0.000   0.000   0.000   0.000
776        0.000   0.000   0.000   0.000
777       -0.000  -0.000   0.000  -0.000
778        0.000   0.000   0.000   0.000
779        0.000   0.000   0.000   0.000
780        0.000   0.000   0.000   0.000
781        0.000   0.000   0.000   0.000
782        0.000   0.000   0.000   0.000
783        0.000   0.000   0.000   0.000
784        0.000   0.000   0.000   0.000
785        0.000   0.000   0.000   0.000
786        0.000   0.000   0.000   0.000
787        0.000   0.000   0.000   0.000
788        0.000   0.000   0.000   0.000
789        0.000   0.000   0.000   0.000
790        0.000   0.000   0.000   0.000
791        0.000   0.000   0.000   0.000
792        0.000   0.000   0.000   0.000
793        0.000   0.000   0.000   0.000
794        0.000   0.000   0.000   0.000
795        0.000   0.000   0.000   0.000
796       -0.000  -0.000   0.000  -0.000
797        0.000   0.000   0.000   0.000
798        0.000   0.000   0.000   0.000
799        0.000   0.000   0.000   0.000
800        0.000  -0.000   0.000  -0.000
801       -0.000  -0.000   0.000  -0.000
802        0.000  -0.000   0.000   0.000
803       -0.000  -0.000   0.000  -0.000
804       -0.000  -0.000   0.000  -0.000
805       -0.000  -0.000   0.000  -0.000
806       -0.000  -0.000   0.000  -0.000
807       -0.000  -0.000   0.000  -0.000
808       -0.000  -0.000   0.000  -0.000
809        0.000   0.000   0.000   0.000
810        0.000   0.000   0.000   0.000
811        0.000   0.000   0.000   0.000
812        0.000   0.000   0.000   0.000
813        0.000   0.000   0.000   0.000
814        0.000   0.000   0.000   0.000
815        0.000   0.000   0.000   0.000
816        0.000   0.000   0.000   0.000
817       -0.000  -0.000   0.000  -0.000
818        0.000   0.000   0.000   0.000
819        0.000   0.000   0.000   0.000
820       -0.000  -0.000   0.000  -0.000
821       -0.000  -0.000   0.000  -0.000
822       -0.000  -0.000   0.000  -0.000
823       -0.000  -0.000   0.000  -0.000
824       -0.000  -0.000   0.000  -0.000
825       -0.000  -0.000   0.000  -0.000
826       -0.000  -0.000   0.000  -0.000
827       -0.000  -0.000   0.000  -0.000
828       -0.000  -0.000   0.000  -0.000
829        0.000  -0.000   0.000   0.000
830        0.000   0.000   0.000   0.000
831        0.000   0.000   0.000   0.000
832       -0.000  -0.000   0.000  -0.000
833        0.000  -0.000   0.000  -0.000
834        0.000   0.000   0.000   0.000
835       -0.000  -0.000   0.000  -0.000
836       -0.000  -0.000   0.000  -0.000
837       -0.000  -0.000   0.000  -0.000
------------------------------------------------
tot        0.000   0.000   0.000   0.000
 

 total amount of memory used by VASP on root node   510206. kBytes
========================================================================

   base      :      30000. kBytes
   nonlr-proj:      22783. kBytes
   fftplans  :      23686. kBytes
   grid      :      56685. kBytes
   one-center:        645. kBytes
   wavefun   :     376407. kBytes
 
  
  
 General timing and accounting informations for this job:
 ========================================================
  
                  Total CPU time used (sec):     7808.490
                            User time (sec):     7585.453
                          System time (sec):      223.037
                         Elapsed time (sec):     7893.195
  
                   Maximum memory used (kb):     1326052.
                   Average memory used (kb):           0.
  
                          Minor page faults:      3514050
                          Major page faults:            0
                 Voluntary context switches:       756713
